#smiles: CC(=O)OC1=CC=CC=C1C(=O)O

1344 atoms
1344 bonds
2048 angles
3136 dihedrals
0 impropers

9 atom types
10 bond types
14 angle types
10 dihedral types

   0.0000   26.6388 xlo xhi
   0.0000   23.2346 ylo yhi
   0.0000   23.0904 zlo zhi
   0.0000    0.0000   -9.0996 xy xz yz

Masses

1  12.0107800 #U00c3
2  12.0107800 #U00c
3  15.9994300 #U00o
4  15.9994300 #U00os
5  12.0107800 #U00ca
6  15.9994300 #U00oh
7   1.0079470 #U00hc
8   1.0079470 #U00ha
9   1.0079470 #U00ho

Bond Coeffs

1 harmonic 313.0000000   1.5240000 #U00(c3-c)
2 harmonic 637.7000000   1.2180000 #U00(c-o)
3 harmonic 390.8000000   1.3580000 #U00(c-os)
4 harmonic 376.6000000   1.3700000 #U00(os-ca)
5 harmonic 461.1000000   1.3980000 #U00(ca-ca)
6 harmonic 345.9000000   1.4910000 #U00(ca-c)
7 harmonic 400.1000000   1.3510000 #U00(c-oh)
8 harmonic 330.6000000   1.0970000 #U00(c3-hc)
9 harmonic 345.8000000   1.0860000 #U00(ca-ha)
10 harmonic 371.4000000   0.9730000 #U00(oh-ho)

Angle Coeffs

1 harmonic  67.4000000 123.2000528 #U00(c3-c-o)
2 harmonic  68.9000000 110.7200477 #U00(c3-c-os)
3 harmonic  46.9000000 108.7700466 #U00(c-c3-hc)
4 harmonic  63.4000000 121.1500522 #U00(c-os-ca)
5 harmonic  75.3000000 123.2500525 #U00(o-c-os)
6 harmonic  69.6000000 119.2000511 #U00(os-ca-ca)
7 harmonic  66.6000000 120.0200517 #U00(ca-ca-ca)
8 harmonic  48.2000000 119.8800511 #U00(ca-ca-ha)
9 harmonic  64.3000000 120.3300516 #U00(ca-ca-c)
10 harmonic  68.7000000 122.6000525 #U00(ca-c-o)
11 harmonic  69.2000000 113.4500489 #U00(ca-c-oh)
12 harmonic  49.9000000 106.5500460 #U00(c-oh-ho)
13 harmonic  75.9000000 122.1000523 #U00(o-c-oh)
14 harmonic  39.4000000 107.5800459 #U00(hc-c3-hc)

Dihedral Coeffs

1 charmm 2.700000 2 180 0.0 #U00(c3-c-os-ca,o-c-os-ca)
2 charmm 0.900000 2 180 0.0 #U00(c-os-ca-ca)
3 charmm 0.800000 1 0 0.0 #U00(o-c-c3-hc)
4 charmm 0.080000 3 180 0.0 #U00(o-c-c3-hc)
5 charmm 3.625000 2 180 0.0 #U00(os-ca-ca-ca,os-ca-ca-ha,os-ca-ca-c,ca-ca-ca-ca,ca-ca-ca-ha,ca-ca-ca-c,c-ca-ca-ha,ha-ca-ca-ha)
6 charmm 1.000000 2 180 0.0 #U00(ca-ca-c-o,ca-ca-c-oh)
7 charmm 2.300000 2 180 0.0 #U00(ca-c-oh-ho,o-c-oh-ho)
8 charmm 1.900000 1 0 0.0 #U00(o-c-oh-ho)
9 charmm 10.500000 2 180 0.0 #U00(o-os-c-c3,oh-ca-c-o)
10 charmm 1.100000 2 180 0.0 #U00(os-ca-ca-ca,ha-ca-ca-ca,ca-ca-ca-c)

Atoms

     1      1      1    0.02251800   1.8370700   0.9945802   0.8105454 #U00:c3
     2      1      2    0.26273500   1.2687300   2.3514538   1.2119352 #U00:c
     3      1      3   -0.26654000   1.6761100   3.4146700   0.7743543 #U00:o
     4      1      4   -0.27756100   0.2643440   2.2239518   2.1272214 #U00:os
     5      1      5    0.09861200  -0.3749756   3.3058300   2.6897904 #U00:ca
     6      1      5   -0.03027200  -1.6330556   3.6448815   2.1629542 #U00:ca
     7      1      5   -0.05959500  -2.3190356   4.7749808   2.6271904 #U00:ca
     8      1      5   -0.06126400  -1.7497656   5.5687971   3.6298658 #U00:ca
     9      1      5   -0.04617100  -0.5062956   5.2214312   4.1777180 #U00:ca
    10      1      5    0.07770600   0.1980110   4.0820067   3.7321262 #U00:ca
    11      1      2    0.29269500   1.5118100   3.7597921   4.4120148 #U00:c
    12      1      3   -0.26081100   2.0644000   4.5289049   5.1780926 #U00:o
    13      1      6   -0.32780000   2.0618800   2.5494413   4.1836023 #U00:oh
    14      1      7    0.03365900   2.7156800   1.1239987   0.1670413 #U00:hc
    15      1      7    0.03365900   1.0775100   0.4176929   0.2694379 #U00:hc
    16      1      7    0.03365900   2.1324300   0.4337431   1.7054534 #U00:hc
    17      1      8    0.06509300  -2.0727456   3.0343162   1.3804939 #U00:ha
    18      1      8    0.06237000  -3.2869756   5.0364828   2.2107318 #U00:ha
    19      1      8    0.06230100  -2.2779656   6.4456903   3.9923769 #U00:ha
    20      1      8    0.06323000  -0.0957692   5.8410574   4.9692610 #U00:ha
    21      1      9    0.22177600   2.8777900   2.5334688   4.7178287 #U00:ho
    22      2      1    0.02251800   1.3364300   6.7948726   0.7859418 #U00:c3
    23      2      2    0.26273500   1.9125400   8.1472257   1.1904837 #U00:c
    24      2      3   -0.26654000   1.5204500   9.2133813   0.7462351 #U00:o
    25      2      4   -0.27756100   2.9062600   8.0117959   2.1156588 #U00:os
    26      2      5    0.09861200   3.5559300   9.0876230   2.6765633 #U00:ca
    27      2      5   -0.03027200   4.8136300   9.4169320   2.1435198 #U00:ca
    28      2      5   -0.05959500   5.5115800  10.5398431   2.6067129 #U00:ca
    29      2      5   -0.06126400   4.9557000  11.3356685   3.6151803 #U00:ca
    30      2      5   -0.04617100   3.7119400  10.9979830   4.1692229 #U00:ca
    31      2      5    0.07770600   2.9949400   9.8660682   3.7237528 #U00:ca
    32      2      2    0.29269500   1.6804400   9.5536236   4.4072154 #U00:c
    33      2      3   -0.26081100   1.1387100  10.3231593   5.1806905 #U00:o
    34      2      6   -0.32780000   1.1154900   8.3515668   4.1716938 #U00:oh
    35      2      7    0.03365900   1.0477900   6.2283153   1.6794639 #U00:hc
    36      2      7    0.03365900   0.4523020   6.9314359   0.1515004 #U00:hc
    37      2      7    0.03365900   2.0899800   6.2199139   0.2342592 #U00:hc
    38      2      8    0.06509300   5.2439300   8.8038461   1.3578003 #U00:ha
    39      2      8    0.06237000   6.4786900  10.7947052   2.1843389 #U00:ha
    40      2      8    0.06230100   5.4933700  12.2074914   3.9764563 #U00:ha
    41      2      8    0.06323000   3.3116200  11.6198847   4.9641670 #U00:ha
    42      2      9    0.22177600   0.3014130   8.3400651   4.7087311 #U00:ho
    43      3      1    0.02251800   5.2076100   0.1669396  10.3206911 #U00:c3
    44      3      2    0.26273500   4.6246400  -1.1829452   9.9176594 #U00:c
    45      3      3   -0.26654000   5.0107300  -2.2504679  10.3640133 #U00:o
    46      3      4   -0.27756100   3.6327700  -1.0442982   8.9910026 #U00:os
    47      3      5    0.09861200   2.9805900  -2.1192519   8.4305820 #U00:ca
    48      3      5   -0.03027200   1.7209200  -2.4439916   8.9618770 #U00:ca
    49      3      5   -0.05959500   1.0217100  -3.5671855   8.5011672 #U00:ca
    50      3      5   -0.06126400   1.5780800  -4.3677066   7.4967675 #U00:ca
    51      3      5   -0.04617100   2.8236600  -4.0344318   6.9444692 #U00:ca
    52      3      5    0.07770600   3.5424600  -2.9030720   7.3879749 #U00:ca
    53      3      2    0.29269500   4.8601800  -2.5982924   6.7074603 #U00:c
    54      3      3   -0.26081100   5.4031100  -3.3742225   5.9411938 #U00:o
    55      3      6   -0.32780000   5.4260700  -1.3954286   6.9364908 #U00:oh
    56      3      7    0.03365900   6.0879400   0.0262736  10.9589974 #U00:hc
    57      3      7    0.03365900   4.4567500   0.7493368  10.8682540 #U00:hc
    58      3      7    0.03365900   5.5049400   0.7282975   9.4270256 #U00:hc
    59      3      8    0.06509300   1.2904800  -1.8279994   9.7450766 #U00:ha
    60      3      8    0.06237000   0.0531534  -3.8180122   8.9219026 #U00:ha
    61      3      8    0.06230100   1.0391600  -5.2395530   7.1366967 #U00:ha
    62      3      8    0.06323000   3.2244200  -4.6593603   6.1517072 #U00:ha
    63      3      9    0.22177600   6.2429000  -1.3899351   6.4026170 #U00:ho
    64      4      1    0.02251800   4.6901900   5.9757620  10.2922529 #U00:c3
    65      4      2    0.26273500   5.2524100   4.6170631   9.8868762 #U00:c
    66      4      3   -0.26654000   4.8423700   3.5547149  10.3243273 #U00:o
    67      4      4   -0.27756100   6.2546100   4.7406336   8.9686380 #U00:os
    68      4      5    0.09861200   6.8904536   3.6560507   8.4066047 #U00:ca
    69      4      5   -0.03027200   8.1470556   3.3126420   8.9348419 #U00:ca
    70      4      5   -0.05959500   8.8302756   2.1806804   8.4706403 #U00:ca
    71      4      5   -0.06126400   8.2606056   1.3897412   7.4662009 #U00:ca
    72      4      5   -0.04617100   7.0188296   1.7411690   6.9166603 #U00:ca
    73      4      5    0.07770600   6.3162200   2.8813855   7.3635424 #U00:ca
    74      4      2    0.29269500   5.0018200   3.2046668   6.6852565 #U00:c
    75      4      3   -0.26081100   4.4509200   2.4393425   5.9141474 #U00:o
    76      4      6   -0.32780000   4.4480300   4.4120061   6.9210380 #U00:oh
    77      4      7    0.03365900   3.7973800   5.8488089  10.9162182 #U00:hc
    78      4      7    0.03365900   5.4442000   6.5381491  10.8559530 #U00:hc
    79      4      7    0.03365900   4.4182000   6.5509510   9.3990293 #U00:hc
    80      4      8    0.06509300   8.5874656   3.9214207   9.7185630 #U00:ha
    81      4      8    0.06237000   9.7970856   1.9160419   8.8878029 #U00:ha
    82      4      8    0.06230100   8.7866956   0.5116041   7.1037371 #U00:ha
    83      4      8    0.06323000   6.6082773   1.1239331   6.1233614 #U00:ha
    84      4      9    0.22177600   3.6336000   4.4296968   6.3840063 #U00:ho
    85      5      1    0.02251800   1.8370700  -3.5552129  12.3557207 #U00:c3
    86      5      2    0.26273500   1.2687300  -2.1983393  12.7571105 #U00:c
    87      5      3   -0.26654000   1.6761100  -1.1351231  12.3195296 #U00:o
    88      5      4   -0.27756100   0.2643440  -2.3258413  13.6723967 #U00:os
    89      5      5    0.09861200  -0.3749756  -1.2439631  14.2349656 #U00:ca
    90      5      5   -0.03027200  -1.6330556  -0.9049115  13.7081295 #U00:ca
    91      5      5   -0.05959500  -2.3190356   0.2251877  14.1723657 #U00:ca
    92      5      5   -0.06126400  -1.7497656   1.0190040  15.1750411 #U00:ca
    93      5      5   -0.04617100  -0.5062956   0.6716381  15.7228933 #U00:ca
    94      5      5    0.07770600   0.1980110  -0.4677864  15.2773015 #U00:ca
    95      5      2    0.29269500   1.5118100  -0.7900009  15.9571901 #U00:c
    96      5      3   -0.26081100   2.0644000  -0.0208882  16.7232679 #U00:o
    97      5      6   -0.32780000   2.0618800  -2.0003518  15.7287776 #U00:oh
    98      5      7    0.03365900   2.7156800  -3.4257943  11.7122166 #U00:hc
    99      5      7    0.03365900   1.0775100  -4.1321001  11.8146132 #U00:hc
   100      5      7    0.03365900   2.1324300  -4.1160500  13.2506286 #U00:hc
   101      5      8    0.06509300  -2.0727456  -1.5154768  12.9256691 #U00:ha
   102      5      8    0.06237000  -3.2869756   0.4866897  13.7559070 #U00:ha
   103      5      8    0.06230100  -2.2779656   1.8958972  15.5375521 #U00:ha
   104      5      8    0.06323000  -0.0957692   1.2912643  16.5144363 #U00:ha
   105      5      9    0.22177600   2.8777900  -2.0163243  16.2630039 #U00:ho
   106      6      1    0.02251800   1.3364300   2.2450796  12.3311170 #U00:c3
   107      6      2    0.26273500   1.9125400   3.5974326  12.7356589 #U00:c
   108      6      3   -0.26654000   1.5204500   4.6635882  12.2914104 #U00:o
   109      6      4   -0.27756100   2.9062600   3.4620029  13.6608341 #U00:os
   110      6      5    0.09861200   3.5559300   4.5378300  14.2217386 #U00:ca
   111      6      5   -0.03027200   4.8136300   4.8671389  13.6886951 #U00:ca
   112      6      5   -0.05959500   5.5115800   5.9900500  14.1518881 #U00:ca
   113      6      5   -0.06126400   4.9557000   6.7858754  15.1603555 #U00:ca
   114      6      5   -0.04617100   3.7119400   6.4481899  15.7143981 #U00:ca
   115      6      5    0.07770600   2.9949400   5.3162751  15.2689281 #U00:ca
   116      6      2    0.29269500   1.6804400   5.0038305  15.9523907 #U00:c
   117      6      3   -0.26081100   1.1387100   5.7733663  16.7258657 #U00:o
   118      6      6   -0.32780000   1.1154900   3.8017737  15.7168691 #U00:oh
   119      6      7    0.03365900   1.0477900   1.6785222  13.2246392 #U00:hc
   120      6      7    0.03365900   0.4523020   2.3816429  11.6966756 #U00:hc
   121      6      7    0.03365900   2.0899800   1.6701209  11.7794345 #U00:hc
   122      6      8    0.06509300   5.2439300   4.2540530  12.9029756 #U00:ha
   123      6      8    0.06237000   6.4786900   6.2449121  13.7295141 #U00:ha
   124      6      8    0.06230100   5.4933700   7.6576983  15.5216316 #U00:ha
   125      6      8    0.06323000   3.3116200   7.0700916  16.5093423 #U00:ha
   126      6      9    0.22177600   0.3014130   3.7902720  16.2539063 #U00:ho
   127      7      1    0.02251800   5.2076100  -4.3828534  21.8658664 #U00:c3
   128      7      2    0.26273500   4.6246400  -5.7327383  21.4628346 #U00:c
   129      7      3   -0.26654000   5.0107300  -6.8002610  21.9091885 #U00:o
   130      7      4   -0.27756100   3.6327700  -5.5940912  20.5361779 #U00:os
   131      7      5    0.09861200   2.9805900  -6.6690450  19.9757573 #U00:ca
   132      7      5   -0.03027200   1.7209200  -6.9937846  20.5070523 #U00:ca
   133      7      5   -0.05959500   1.0217100  -8.1169786  20.0463424 #U00:ca
   134      7      5   -0.06126400   1.5780800  -8.9174996  19.0419427 #U00:ca
   135      7      5   -0.04617100   2.8236600  -8.5842249  18.4896444 #U00:ca
   136      7      5    0.07770600   3.5424600  -7.4528651  18.9331502 #U00:ca
   137      7      2    0.29269500   4.8601800  -7.1480855  18.2526356 #U00:c
   138      7      3   -0.26081100   5.4031100  -7.9240156  17.4863691 #U00:o
   139      7      6   -0.32780000   5.4260700  -5.9452216  18.4816661 #U00:oh
   140      7      7    0.03365900   6.0879400  -4.5235195  22.5041727 #U00:hc
   141      7      7    0.03365900   4.4567500  -3.8004563  22.4134293 #U00:hc
   142      7      7    0.03365900   5.5049400  -3.8214956  20.9722009 #U00:hc
   143      7      8    0.06509300   1.2904800  -6.3777925  21.2902519 #U00:ha
   144      7      8    0.06237000   0.0531534  -8.3678053  20.4670779 #U00:ha
   145      7      8    0.06230100   1.0391600  -9.7893461  18.6818719 #U00:ha
   146      7      8    0.06323000   3.2244200  -9.2091534  17.6968825 #U00:ha
   147      7      9    0.22177600   6.2429000  -5.9397281  17.9477922 #U00:ho
   148      8      1    0.02251800   4.6901900   1.4259690  21.8374281 #U00:c3
   149      8      2    0.26273500   5.2524100   0.0672700  21.4320515 #U00:c
   150      8      3   -0.26654000   4.8423700  -0.9950782  21.8695026 #U00:o
   151      8      4   -0.27756100   6.2546100   0.1908406  20.5138133 #U00:os
   152      8      5    0.09861200   6.8904536  -0.8937424  19.9517799 #U00:ca
   153      8      5   -0.03027200   8.1470556  -1.2371510  20.4800171 #U00:ca
   154      8      5   -0.05959500   8.8302756  -2.3691126  20.0158155 #U00:ca
   155      8      5   -0.06126400   8.2606056  -3.1600519  19.0113762 #U00:ca
   156      8      5   -0.04617100   7.0188296  -2.8086241  18.4618356 #U00:ca
   157      8      5    0.07770600   6.3162200  -1.6684075  18.9087177 #U00:ca
   158      8      2    0.29269500   5.0018200  -1.3451263  18.2304318 #U00:c
   159      8      3   -0.26081100   4.4509200  -2.1104505  17.4593227 #U00:o
   160      8      6   -0.32780000   4.4480300  -0.1377869  18.4662133 #U00:oh
   161      8      7    0.03365900   3.7973800   1.2990158  22.4613935 #U00:hc
   162      8      7    0.03365900   5.4442000   1.9883560  22.4011283 #U00:hc
   163      8      7    0.03365900   4.4182000   2.0011579  20.9442045 #U00:hc
   164      8      8    0.06509300   8.5874656  -0.6283724  21.2637382 #U00:ha
   165      8      8    0.06237000   9.7970856  -2.6337512  20.4329782 #U00:ha
   166      8      8    0.06230100   8.7866956  -4.0381890  18.6489123 #U00:ha
   167      8      8    0.06323000   6.6082773  -3.4258600  17.6685367 #U00:ha
   168      8      9    0.22177600   3.6336000  -0.1200962  17.9291816 #U00:ho
   169      9      1    0.02251800   1.8370700  12.6118695   0.8105454 #U00:c3
   170      9      2    0.26273500   1.2687300  13.9687431   1.2119352 #U00:c
   171      9      3   -0.26654000   1.6761100  15.0319593   0.7743543 #U00:o
   172      9      4   -0.27756100   0.2643440  13.8412411   2.1272214 #U00:os
   173      9      5    0.09861200  -0.3749756  14.9231193   2.6897904 #U00:ca
   174      9      5   -0.03027200  -1.6330556  15.2621709   2.1629542 #U00:ca
   175      9      5   -0.05959500  -2.3190356  16.3922701   2.6271904 #U00:ca
   176      9      5   -0.06126400  -1.7497656  17.1860865   3.6298658 #U00:ca
   177      9      5   -0.04617100  -0.5062956  16.8387205   4.1777180 #U00:ca
   178      9      5    0.07770600   0.1980110  15.6992961   3.7321262 #U00:ca
   179      9      2    0.29269500   1.5118100  15.3770815   4.4120148 #U00:c
   180      9      3   -0.26081100   2.0644000  16.1461943   5.1780926 #U00:o
   181      9      6   -0.32780000   2.0618800  14.1667306   4.1836023 #U00:oh
   182      9      7    0.03365900   2.7156800  12.7412881   0.1670413 #U00:hc
   183      9      7    0.03365900   1.0775100  12.0349823   0.2694379 #U00:hc
   184      9      7    0.03365900   2.1324300  12.0510325   1.7054534 #U00:hc
   185      9      8    0.06509300  -2.0727456  14.6516056   1.3804939 #U00:ha
   186      9      8    0.06237000  -3.2869756  16.6537721   2.2107318 #U00:ha
   187      9      8    0.06230100  -2.2779656  18.0629797   3.9923769 #U00:ha
   188      9      8    0.06323000  -0.0957692  17.4583467   4.9692610 #U00:ha
   189      9      9    0.22177600   2.8777900  14.1507582   4.7178287 #U00:ho
   190     10      1    0.02251800   1.3364300  18.4121620   0.7859418 #U00:c3
   191     10      2    0.26273500   1.9125400  19.7645150   1.1904837 #U00:c
   192     10      3   -0.26654000   1.5204500  20.8306706   0.7462351 #U00:o
   193     10      4   -0.27756100   2.9062600  19.6290853   2.1156588 #U00:os
   194     10      5    0.09861200   3.5559300  20.7049124   2.6765633 #U00:ca
   195     10      5   -0.03027200   4.8136300  21.0342213   2.1435198 #U00:ca
   196     10      5   -0.05959500   5.5115800  22.1571325   2.6067129 #U00:ca
   197     10      5   -0.06126400   4.9557000  22.9529578   3.6151803 #U00:ca
   198     10      5   -0.04617100   3.7119400  22.6152723   4.1692229 #U00:ca
   199     10      5    0.07770600   2.9949400  21.4833575   3.7237528 #U00:ca
   200     10      2    0.29269500   1.6804400  21.1709129   4.4072154 #U00:c
   201     10      3   -0.26081100   1.1387100  21.9404487   5.1806905 #U00:o
   202     10      6   -0.32780000   1.1154900  19.9688561   4.1716938 #U00:oh
   203     10      7    0.03365900   1.0477900  17.8456046   1.6794639 #U00:hc
   204     10      7    0.03365900   0.4523020  18.5487253   0.1515004 #U00:hc
   205     10      7    0.03365900   2.0899800  17.8372033   0.2342592 #U00:hc
   206     10      8    0.06509300   5.2439300  20.4211355   1.3578003 #U00:ha
   207     10      8    0.06237000   6.4786900  22.4119945   2.1843389 #U00:ha
   208     10      8    0.06230100   5.4933700  23.8247807   3.9764563 #U00:ha
   209     10      8    0.06323000   3.3116200  23.2371740   4.9641670 #U00:ha
   210     10      9    0.22177600   0.3014130  19.9573544   4.7087311 #U00:ho
   211     11      1    0.02251800   5.2076100  11.7842290  10.3206911 #U00:c3
   212     11      2    0.26273500   4.6246400  10.4343441   9.9176594 #U00:c
   213     11      3   -0.26654000   5.0107300   9.3668214  10.3640133 #U00:o
   214     11      4   -0.27756100   3.6327700  10.5729912   8.9910026 #U00:os
   215     11      5    0.09861200   2.9805900   9.4980375   8.4305820 #U00:ca
   216     11      5   -0.03027200   1.7209200   9.1732978   8.9618770 #U00:ca
   217     11      5   -0.05959500   1.0217100   8.0501038   8.5011672 #U00:ca
   218     11      5   -0.06126400   1.5780800   7.2495828   7.4967675 #U00:ca
   219     11      5   -0.04617100   2.8236600   7.5828575   6.9444692 #U00:ca
   220     11      5    0.07770600   3.5424600   8.7142173   7.3879749 #U00:ca
   221     11      2    0.29269500   4.8601800   9.0189969   6.7074603 #U00:c
   222     11      3   -0.26081100   5.4031100   8.2430669   5.9411938 #U00:o
   223     11      6   -0.32780000   5.4260700  10.2218608   6.9364908 #U00:oh
   224     11      7    0.03365900   6.0879400  11.6435629  10.9589974 #U00:hc
   225     11      7    0.03365900   4.4567500  12.3666261  10.8682540 #U00:hc
   226     11      7    0.03365900   5.5049400  12.3455868   9.4270256 #U00:hc
   227     11      8    0.06509300   1.2904800   9.7892899   9.7450766 #U00:ha
   228     11      8    0.06237000   0.0531534   7.7992771   8.9219026 #U00:ha
   229     11      8    0.06230100   1.0391600   6.3777363   7.1366967 #U00:ha
   230     11      8    0.06323000   3.2244200   6.9579290   6.1517072 #U00:ha
   231     11      9    0.22177600   6.2429000  10.2273543   6.4026170 #U00:ho
   232     12      1    0.02251800   4.6901900  17.5930514  10.2922529 #U00:c3
   233     12      2    0.26273500   5.2524100  16.2343525   9.8868762 #U00:c
   234     12      3   -0.26654000   4.8423700  15.1720042  10.3243273 #U00:o
   235     12      4   -0.27756100   6.2546100  16.3579230   8.9686380 #U00:os
   236     12      5    0.09861200   6.8904536  15.2733400   8.4066047 #U00:ca
   237     12      5   -0.03027200   8.1470556  14.9299314   8.9348419 #U00:ca
   238     12      5   -0.05959500   8.8302756  13.7979698   8.4706403 #U00:ca
   239     12      5   -0.06126400   8.2606056  13.0070306   7.4662009 #U00:ca
   240     12      5   -0.04617100   7.0188296  13.3584584   6.9166603 #U00:ca
   241     12      5    0.07770600   6.3162200  14.4986749   7.3635424 #U00:ca
   242     12      2    0.29269500   5.0018200  14.8219562   6.6852565 #U00:c
   243     12      3   -0.26081100   4.4509200  14.0566319   5.9141474 #U00:o
   244     12      6   -0.32780000   4.4480300  16.0292955   6.9210380 #U00:oh
   245     12      7    0.03365900   3.7973800  17.4660983  10.9162182 #U00:hc
   246     12      7    0.03365900   5.4442000  18.1554384  10.8559530 #U00:hc
   247     12      7    0.03365900   4.4182000  18.1682404   9.3990293 #U00:hc
   248     12      8    0.06509300   8.5874656  15.5387100   9.7185630 #U00:ha
   249     12      8    0.06237000   9.7970856  13.5333312   8.8878029 #U00:ha
   250     12      8    0.06230100   8.7866956  12.1288934   7.1037371 #U00:ha
   251     12      8    0.06323000   6.6082773  12.7412224   6.1233614 #U00:ha
   252     12      9    0.22177600   3.6336000  16.0469862   6.3840063 #U00:ho
   253     13      1    0.02251800   1.8370700   8.0620765  12.3557207 #U00:c3
   254     13      2    0.26273500   1.2687300   9.4189500  12.7571105 #U00:c
   255     13      3   -0.26654000   1.6761100  10.4821663  12.3195296 #U00:o
   256     13      4   -0.27756100   0.2643440   9.2914481  13.6723967 #U00:os
   257     13      5    0.09861200  -0.3749756  10.3733263  14.2349656 #U00:ca
   258     13      5   -0.03027200  -1.6330556  10.7123778  13.7081295 #U00:ca
   259     13      5   -0.05959500  -2.3190356  11.8424771  14.1723657 #U00:ca
   260     13      5   -0.06126400  -1.7497656  12.6362934  15.1750411 #U00:ca
   261     13      5   -0.04617100  -0.5062956  12.2889274  15.7228933 #U00:ca
   262     13      5    0.07770600   0.1980110  11.1495030  15.2773015 #U00:ca
   263     13      2    0.29269500   1.5118100  10.8272884  15.9571901 #U00:c
   264     13      3   -0.26081100   2.0644000  11.5964012  16.7232679 #U00:o
   265     13      6   -0.32780000   2.0618800   9.6169376  15.7287776 #U00:oh
   266     13      7    0.03365900   2.7156800   8.1914950  11.7122166 #U00:hc
   267     13      7    0.03365900   1.0775100   7.4851892  11.8146132 #U00:hc
   268     13      7    0.03365900   2.1324300   7.5012394  13.2506286 #U00:hc
   269     13      8    0.06509300  -2.0727456  10.1018125  12.9256691 #U00:ha
   270     13      8    0.06237000  -3.2869756  12.1039791  13.7559070 #U00:ha
   271     13      8    0.06230100  -2.2779656  13.5131866  15.5375521 #U00:ha
   272     13      8    0.06323000  -0.0957692  12.9085536  16.5144363 #U00:ha
   273     13      9    0.22177600   2.8777900   9.6009651  16.2630039 #U00:ho
   274     14      1    0.02251800   1.3364300  13.8623689  12.3311170 #U00:c3
   275     14      2    0.26273500   1.9125400  15.2147220  12.7356589 #U00:c
   276     14      3   -0.26654000   1.5204500  16.2808776  12.2914104 #U00:o
   277     14      4   -0.27756100   2.9062600  15.0792922  13.6608341 #U00:os
   278     14      5    0.09861200   3.5559300  16.1551193  14.2217386 #U00:ca
   279     14      5   -0.03027200   4.8136300  16.4844283  13.6886951 #U00:ca
   280     14      5   -0.05959500   5.5115800  17.6073394  14.1518881 #U00:ca
   281     14      5   -0.06126400   4.9557000  18.4031647  15.1603555 #U00:ca
   282     14      5   -0.04617100   3.7119400  18.0654793  15.7143981 #U00:ca
   283     14      5    0.07770600   2.9949400  16.9335644  15.2689281 #U00:ca
   284     14      2    0.29269500   1.6804400  16.6211198  15.9523907 #U00:c
   285     14      3   -0.26081100   1.1387100  17.3906556  16.7258657 #U00:o
   286     14      6   -0.32780000   1.1154900  15.4190631  15.7168691 #U00:oh
   287     14      7    0.03365900   1.0477900  13.2958116  13.2246392 #U00:hc
   288     14      7    0.03365900   0.4523020  13.9989322  11.6966756 #U00:hc
   289     14      7    0.03365900   2.0899800  13.2874102  11.7794345 #U00:hc
   290     14      8    0.06509300   5.2439300  15.8713424  12.9029756 #U00:ha
   291     14      8    0.06237000   6.4786900  17.8622014  13.7295141 #U00:ha
   292     14      8    0.06230100   5.4933700  19.2749877  15.5216316 #U00:ha
   293     14      8    0.06323000   3.3116200  18.6873809  16.5093423 #U00:ha
   294     14      9    0.22177600   0.3014130  15.4075613  16.2539063 #U00:ho
   295     15      1    0.02251800   5.2076100   7.2344359  21.8658664 #U00:c3
   296     15      2    0.26273500   4.6246400   5.8845511  21.4628346 #U00:c
   297     15      3   -0.26654000   5.0107300   4.8170284  21.9091885 #U00:o
   298     15      4   -0.27756100   3.6327700   6.0231981  20.5361779 #U00:os
   299     15      5    0.09861200   2.9805900   4.9482444  19.9757573 #U00:ca
   300     15      5   -0.03027200   1.7209200   4.6235047  20.5070523 #U00:ca
   301     15      5   -0.05959500   1.0217100   3.5003107  20.0463424 #U00:ca
   302     15      5   -0.06126400   1.5780800   2.6997897  19.0419427 #U00:ca
   303     15      5   -0.04617100   2.8236600   3.0330645  18.4896444 #U00:ca
   304     15      5    0.07770600   3.5424600   4.1644242  18.9331502 #U00:ca
   305     15      2    0.29269500   4.8601800   4.4692038  18.2526356 #U00:c
   306     15      3   -0.26081100   5.4031100   3.6932738  17.4863691 #U00:o
   307     15      6   -0.32780000   5.4260700   5.6720677  18.4816661 #U00:oh
   308     15      7    0.03365900   6.0879400   7.0937699  22.5041727 #U00:hc
   309     15      7    0.03365900   4.4567500   7.8168331  22.4134293 #U00:hc
   310     15      7    0.03365900   5.5049400   7.7957937  20.9722009 #U00:hc
   311     15      8    0.06509300   1.2904800   5.2394969  21.2902519 #U00:ha
   312     15      8    0.06237000   0.0531534   3.2494840  20.4670779 #U00:ha
   313     15      8    0.06230100   1.0391600   1.8279432  18.6818719 #U00:ha
   314     15      8    0.06323000   3.2244200   2.4081360  17.6968825 #U00:ha
   315     15      9    0.22177600   6.2429000   5.6775612  17.9477922 #U00:ho
   316     16      1    0.02251800   4.6901900  13.0432583  21.8374281 #U00:c3
   317     16      2    0.26273500   5.2524100  11.6845594  21.4320515 #U00:c
   318     16      3   -0.26654000   4.8423700  10.6222112  21.8695026 #U00:o
   319     16      4   -0.27756100   6.2546100  11.8081299  20.5138133 #U00:os
   320     16      5    0.09861200   6.8904536  10.7235470  19.9517799 #U00:ca
   321     16      5   -0.03027200   8.1470556  10.3801383  20.4800171 #U00:ca
   322     16      5   -0.05959500   8.8302756   9.2481767  20.0158155 #U00:ca
   323     16      5   -0.06126400   8.2606056   8.4572375  19.0113762 #U00:ca
   324     16      5   -0.04617100   7.0188296   8.8086653  18.4618356 #U00:ca
   325     16      5    0.07770600   6.3162200   9.9488818  18.9087177 #U00:ca
   326     16      2    0.29269500   5.0018200  10.2721631  18.2304318 #U00:c
   327     16      3   -0.26081100   4.4509200   9.5068388  17.4593227 #U00:o
   328     16      6   -0.32780000   4.4480300  11.4795024  18.4662133 #U00:oh
   329     16      7    0.03365900   3.7973800  12.9163052  22.4613935 #U00:hc
   330     16      7    0.03365900   5.4442000  13.6056454  22.4011283 #U00:hc
   331     16      7    0.03365900   4.4182000  13.6184473  20.9442045 #U00:hc
   332     16      8    0.06509300   8.5874656  10.9889169  21.2637382 #U00:ha
   333     16      8    0.06237000   9.7970856   8.9835381  20.4329782 #U00:ha
   334     16      8    0.06230100   8.7866956   7.5791003  18.6489123 #U00:ha
   335     16      8    0.06323000   6.6082773   8.1914293  17.6685367 #U00:ha
   336     16      9    0.22177600   3.6336000  11.4971931  17.9291816 #U00:ho
   337     17      1    0.02251800   8.4967656   0.9945802   0.8105454 #U00:c3
   338     17      2    0.26273500   7.9284256   2.3514538   1.2119352 #U00:c
   339     17      3   -0.26654000   8.3358056   3.4146700   0.7743543 #U00:o
   340     17      4   -0.27756100   6.9240396   2.2239518   2.1272214 #U00:os
   341     17      5    0.09861200   6.2847200   3.3058300   2.6897904 #U00:ca
   342     17      5   -0.03027200   5.0266400   3.6448815   2.1629542 #U00:ca
   343     17      5   -0.05959500   4.3406600   4.7749808   2.6271904 #U00:ca
   344     17      5   -0.06126400   4.9099300   5.5687971   3.6298658 #U00:ca
   345     17      5   -0.04617100   6.1534000   5.2214312   4.1777180 #U00:ca
   346     17      5    0.07770600   6.8577066   4.0820067   3.7321262 #U00:ca
   347     17      2    0.29269500   8.1715056   3.7597921   4.4120148 #U00:c
   348     17      3   -0.26081100   8.7240956   4.5289049   5.1780926 #U00:o
   349     17      6   -0.32780000   8.7215756   2.5494413   4.1836023 #U00:oh
   350     17      7    0.03365900   9.3753756   1.1239987   0.1670413 #U00:hc
   351     17      7    0.03365900   7.7372056   0.4176929   0.2694379 #U00:hc