#smiles: CC(=O)OC1=CC=CC=C1C(=O)O

1344 atoms
1344 bonds
2048 angles
3136 dihedrals
0 impropers

9 atom types
10 bond types
14 angle types
10 dihedral types

   0.0000   26.6629 xlo xhi
   0.0000   23.0168 ylo yhi
   0.0000   23.0256 zlo zhi
   0.0000    0.0000   -2.2374 xy xz yz

Masses

1  12.0107800 #U00c3
2  12.0107800 #U00c
3  15.9994300 #U00o
4  15.9994300 #U00os
5  12.0107800 #U00ca
6  15.9994300 #U00oh
7   1.0079470 #U00hc
8   1.0079470 #U00ha
9   1.0079470 #U00ho

Bond Coeffs

1 harmonic 313.0000000   1.5240000 #U00(c3-c)
2 harmonic 637.7000000   1.2180000 #U00(c-o)
3 harmonic 390.8000000   1.3580000 #U00(c-os)
4 harmonic 376.6000000   1.3700000 #U00(os-ca)
5 harmonic 461.1000000   1.3980000 #U00(ca-ca)
6 harmonic 345.9000000   1.4910000 #U00(ca-c)
7 harmonic 400.1000000   1.3510000 #U00(c-oh)
8 harmonic 330.6000000   1.0970000 #U00(c3-hc)
9 harmonic 345.8000000   1.0860000 #U00(ca-ha)
10 harmonic 371.4000000   0.9730000 #U00(oh-ho)

Angle Coeffs

1 harmonic  67.4000000 123.2000528 #U00(c3-c-o)
2 harmonic  68.9000000 110.7200477 #U00(c3-c-os)
3 harmonic  46.9000000 108.7700466 #U00(c-c3-hc)
4 harmonic  63.4000000 121.1500522 #U00(c-os-ca)
5 harmonic  75.3000000 123.2500525 #U00(o-c-os)
6 harmonic  69.6000000 119.2000511 #U00(os-ca-ca)
7 harmonic  66.6000000 120.0200517 #U00(ca-ca-ca)
8 harmonic  48.2000000 119.8800511 #U00(ca-ca-ha)
9 harmonic  64.3000000 120.3300516 #U00(ca-ca-c)
10 harmonic  68.7000000 122.6000525 #U00(ca-c-o)
11 harmonic  69.2000000 113.4500489 #U00(ca-c-oh)
12 harmonic  49.9000000 106.5500460 #U00(c-oh-ho)
13 harmonic  75.9000000 122.1000523 #U00(o-c-oh)
14 harmonic  39.4000000 107.5800459 #U00(hc-c3-hc)

Dihedral Coeffs

1 charmm 2.700000 2 180 0.0 #U00(c3-c-os-ca,o-c-os-ca)
2 charmm 0.900000 2 180 0.0 #U00(c-os-ca-ca)
3 charmm 0.800000 1 0 0.0 #U00(o-c-c3-hc)
4 charmm 0.080000 3 180 0.0 #U00(o-c-c3-hc)
5 charmm 3.625000 2 180 0.0 #U00(os-ca-ca-ca,os-ca-ca-ha,os-ca-ca-c,ca-ca-ca-ca,ca-ca-ca-ha,ca-ca-ca-c,c-ca-ca-ha,ha-ca-ca-ha)
6 charmm 1.000000 2 180 0.0 #U00(ca-ca-c-o,ca-ca-c-oh)
7 charmm 2.300000 2 180 0.0 #U00(ca-c-oh-ho,o-c-oh-ho)
8 charmm 1.900000 1 0 0.0 #U00(o-c-oh-ho)
9 charmm 10.500000 2 180 0.0 #U00(o-c3-c-os,o-ca-c-oh)
10 charmm 1.100000 2 180 0.0 #U00(ca-ca-ca-os,ca-ca-ca-ha,c-ca-ca-ca)

Atoms

     1      1      1    0.02251800   1.8886200   3.2510058   4.7141640 #U00:c3
     2      1      2    0.26273500   1.2925600   4.5925196   4.3047706 #U00:c
     3      1      3   -0.26654000   1.6619000   5.6648063   4.7528886 #U00:o
     4      1      4   -0.27756100   0.3135940   4.4429706   3.3665384 #U00:os
     5      1      5    0.09861200  -0.3335548   5.5151060   2.7966293 #U00:ca
     6      1      5   -0.03027200  -1.5977448   5.8411887   3.3158407 #U00:ca
     7      1      5   -0.05959500  -2.2897148   6.9663247   2.8499251 #U00:ca
     8      1      5   -0.06126400  -1.7204548   7.7672163   1.8535331 #U00:ca
     9      1      5   -0.04617100  -0.4705248   7.4318764   1.3123382 #U00:ca
    10      1      5    0.07770600   0.2407250   6.2976989   1.7601495 #U00:ca
    11      1      2    0.29269500   1.5638500   5.9888861   1.0912335 #U00:c
    12      1      3   -0.26081100   2.1093300   6.7566384   0.3188364 #U00:o
    13      1      6   -0.32780000   2.1339100   4.7915757   1.3386323 #U00:oh
    14      1      7    0.03365900   2.1682100   2.6761527   3.8229787 #U00:hc
    15      1      7    0.03365900   2.7815000   3.4041040   5.3312238 #U00:hc
    16      1      7    0.03365900   1.1518500   2.6767470   5.2872507 #U00:hc
    17      1      8    0.06509300  -2.0366748   5.2244125   4.0934239 #U00:ha
    18      1      8    0.06237000  -3.2625948   7.2181274   3.2603827 #U00:ha
    19      1      8    0.06230100  -2.2542048   8.6406418   1.4911223 #U00:ha
    20      1      8    0.06323000  -0.0608016   8.0570694   0.5251661 #U00:ha
    21      1      9    0.22177600   2.9509200   4.7814879   0.8055305 #U00:ho
    22      2      1    0.02251800   1.4160200  -2.5059383   4.7144011 #U00:c3
    23      2      2    0.26273500   1.9993200  -1.1606629   4.2990737 #U00:c
    24      2      3   -0.26654000   1.6165600  -0.0891476   4.7378087 #U00:o
    25      2      4   -0.27756100   2.9845900  -1.3063001   3.3670087 #U00:os
    26      2      5    0.09861200   3.6245600  -0.2320300   2.7932537 #U00:ca
    27      2      5   -0.03027200   4.8878500   0.1033828   3.3087602 #U00:ca
    28      2      5   -0.05959500   5.5724200   1.2314470   2.8384773 #U00:ca
    29      2      5   -0.06126400   4.9967300   2.0248677   1.8395608 #U00:ca
    30      2      5   -0.04617100   3.7478500   1.6799483   1.3020317 #U00:ca
    31      2      5    0.07770600   3.0436100   0.5436477   1.7554489 #U00:ca
    32      2      2    0.29269500   1.7203600   0.2246440   1.0917548 #U00:c
    33      2      3   -0.26081100   1.1667100   0.9883263   0.3207014 #U00:o
    34      2      6   -0.32780000   1.1588800  -0.9764735   1.3406587 #U00:oh
    35      2      7    0.03365900   1.1355100  -3.0848743   3.8259437 #U00:hc
    36      2      7    0.03365900   0.5259530  -2.3579431   5.3366216 #U00:hc
    37      2      7    0.03365900   2.1614900  -3.0725266   5.2838224 #U00:hc
    38      2      8    0.06509300   5.3328700  -0.5084355   4.0869055 #U00:ha
    39      2      8    0.06237000   6.5444300   1.4904350   3.2465385 #U00:ha
    40      2      8    0.06230100   5.5241700   2.9001505   1.4726144 #U00:ha
    41      2      8    0.06323000   3.3331000   2.2999777   0.5135089 #U00:ha
    42      2      9    0.22177600   0.3389950  -0.9910670   0.8125666 #U00:ho
    43      3      1    0.02251800   5.2302700  12.7651251   6.6962086 #U00:c3
    44      3      2    0.26273500   4.6094800  11.4323830   7.0965379 #U00:c
    45      3      3   -0.26654000   4.9575800  10.3561058   6.6405112 #U00:o
    46      3      4   -0.27756100   3.6360100  11.5944211   8.0377218 #U00:os
    47      3      5    0.09861200   2.9817500  10.5294500   8.6119384 #U00:ca
    48      3      5   -0.03027200   1.7167100  10.2056914   8.0933145 #U00:ca
    49      3      5   -0.05959500   1.0201300   9.0855867   8.5647325 #U00:ca
    50      3      5   -0.06126400   1.5856900   8.2878754   9.5661356 #U00:ca
    51      3      5   -0.04617100   2.8368500   8.6210612  10.1061315 #U00:ca
    52      3      5    0.07770600   3.5524300   9.7503252   9.6528443 #U00:ca
    53      3      2    0.29269500   4.8763700  10.0589986  10.3205080 #U00:c
    54      3      3   -0.26081100   5.4197900   9.2931849  11.0962181 #U00:o
    55      3      6   -0.32780000   5.4494700  11.2540145  10.0683988 #U00:oh
    56      3      7    0.03365900   5.5354600  13.3219659   7.5905768 #U00:hc
    57      3      7    0.03365900   6.1105300  12.5997737   6.0648366 #U00:hc
    58      3      7    0.03365900   4.4990600  13.3634705   6.1414876 #U00:hc
    59      3      8    0.06509300   1.2799400  10.8203267   7.3127559 #U00:ha
    60      3      8    0.06237000   0.0464052   8.8354489   8.1550295 #U00:ha
    61      3      8    0.06230100   1.0481200   7.4188047   9.9334646 #U00:ha
    62      3      8    0.06323000   3.2439100   7.9989245  10.8971090 #U00:ha
    63      3      9    0.22177600   6.2675200  11.2636873  10.5998257 #U00:ho
    64      4      1    0.02251800   4.7462400   7.0128621   6.6866324 #U00:c3
    65      4      2    0.26273500   5.3505200   5.6769294   7.1020740 #U00:c
    66      4      3   -0.26654000   4.9840400   4.5998918   6.6626272 #U00:o
    67      4      4   -0.27756100   6.3310800   5.8366708   8.0364338 #U00:os
    68      4      5    0.09861200   6.9755858   4.7688068   8.6165640 #U00:ca
    69      4      5   -0.03027200   8.2391148   4.4331385   8.1018063 #U00:ca
    70      4      5   -0.05959500   8.9236448   3.3063426   8.5747744 #U00:ca
    71      4      5   -0.06126400   8.3476148   2.5143901   9.5746072 #U00:ca
    72      4      5   -0.04617100   7.0988128   2.8600948  10.1122227 #U00:ca
    73      4      5    0.07770600   6.3951300   3.9955024   9.6565083 #U00:ca
    74      4      2    0.29269500   5.0720100   4.3160452  10.3197894 #U00:c
    75      4      3   -0.26081100   4.5123000   3.5495337  11.0836565 #U00:o
    76      4      6   -0.32780000   4.5189400   5.5227405  10.0793087 #U00:oh
    77      4      7    0.03365900   4.4888000   7.6025532   7.5746279 #U00:hc
    78      4      7    0.03365900   3.8384200   6.8498037   6.0948378 #U00:hc
    79      4      7    0.03365900   5.4687100   7.5766788   6.0861776 #U00:hc
    80      4      8    0.06509300   8.6836148   5.0427750   7.3212888 #U00:ha
    81      4      8    0.06237000   9.8959348   3.0468367   8.1672858 #U00:ha
    82      4      8    0.06230100   8.8752748   1.6396043   9.9424358 #U00:ha
    83      4      8    0.06323000   6.6834900   2.2422890  10.9026766 #U00:ha
    84      4      9    0.22177600   3.6982600   5.5381392  10.6062483 #U00:ho
    85      5      1    0.02251800   1.8886200   2.1322913  16.2269486 #U00:c3
    86      5      2    0.26273500   1.2925600   3.4738052  15.8175552 #U00:c
    87      5      3   -0.26654000   1.6619000   4.5460919  16.2656732 #U00:o
    88      5      4   -0.27756100   0.3135940   3.3242561  14.8793230 #U00:os
    89      5      5    0.09861200  -0.3335548   4.3963916  14.3094139 #U00:ca
    90      5      5   -0.03027200  -1.5977448   4.7224742  14.8286253 #U00:ca
    91      5      5   -0.05959500  -2.2897148   5.8476103  14.3627097 #U00:ca
    92      5      5   -0.06126400  -1.7204548   6.6485018  13.3663176 #U00:ca
    93      5      5   -0.04617100  -0.4705248   6.3131620  12.8251228 #U00:ca
    94      5      5    0.07770600   0.2407250   5.1789845  13.2729341 #U00:ca
    95      5      2    0.29269500   1.5638500   4.8701716  12.6040181 #U00:c
    96      5      3   -0.26081100   2.1093300   5.6379239  11.8316210 #U00:o
    97      5      6   -0.32780000   2.1339100   3.6728612  12.8514169 #U00:oh
    98      5      7    0.03365900   2.1682100   1.5574382  15.3357633 #U00:hc
    99      5      7    0.03365900   2.7815000   2.2853895  16.8440084 #U00:hc
   100      5      7    0.03365900   1.1518500   1.5580326  16.8000352 #U00:hc
   101      5      8    0.06509300  -2.0366748   4.1056981  15.6062085 #U00:ha
   102      5      8    0.06237000  -3.2625948   6.0994129  14.7731673 #U00:ha
   103      5      8    0.06230100  -2.2542048   7.5219273  13.0039069 #U00:ha
   104      5      8    0.06323000  -0.0608016   6.9383549  12.0379507 #U00:ha
   105      5      9    0.22177600   2.9509200   3.6627734  12.3183151 #U00:ho
   106      6      1    0.02251800   1.4160200  -3.6246528  16.2271857 #U00:c3
   107      6      2    0.26273500   1.9993200  -2.2793773  15.8118582 #U00:c
   108      6      3   -0.26654000   1.6165600  -1.2078621  16.2505933 #U00:o
   109      6      4   -0.27756100   2.9845900  -2.4250145  14.8797933 #U00:os
   110      6      5    0.09861200   3.6245600  -1.3507444  14.3060383 #U00:ca
   111      6      5   -0.03027200   4.8878500  -1.0153317  14.8215447 #U00:ca
   112      6      5   -0.05959500   5.5724200   0.1127325  14.3512619 #U00:ca
   113      6      5   -0.06126400   4.9967300   0.9061532  13.3523454 #U00:ca
   114      6      5   -0.04617100   3.7478500   0.5612339  12.8148163 #U00:ca
   115      6      5    0.07770600   3.0436100  -0.5750668  13.2682335 #U00:ca
   116      6      2    0.29269500   1.7203600  -0.8940704  12.6045394 #U00:c
   117      6      3   -0.26081100   1.1667100  -0.1303882  11.8334859 #U00:o
   118      6      6   -0.32780000   1.1588800  -2.0951879  12.8534433 #U00:oh
   119      6      7    0.03365900   1.1355100  -4.2035888  15.3387283 #U00:hc
   120      6      7    0.03365900   0.5259530  -3.4766576  16.8494061 #U00:hc
   121      6      7    0.03365900   2.1614900  -4.1912410  16.7966070 #U00:hc
   122      6      8    0.06509300   5.3328700  -1.6271500  15.5996901 #U00:ha
   123      6      8    0.06237000   6.5444300   0.3717206  14.7593231 #U00:ha
   124      6      8    0.06230100   5.5241700   1.7814361  12.9853990 #U00:ha
   125      6      8    0.06323000   3.3331000   1.1812633  12.0262934 #U00:ha
   126      6      9    0.22177600   0.3389950  -2.1097814  12.3253512 #U00:ho
   127      7      1    0.02251800   5.2302700  11.6464106  18.2089932 #U00:c3
   128      7      2    0.26273500   4.6094800  10.3136685  18.6093225 #U00:c
   129      7      3   -0.26654000   4.9575800   9.2373913  18.1532958 #U00:o
   130      7      4   -0.27756100   3.6360100  10.4757067  19.5505064 #U00:os
   131      7      5    0.09861200   2.9817500   9.4107355  20.1247230 #U00:ca
   132      7      5   -0.03027200   1.7167100   9.0869769  19.6060990 #U00:ca
   133      7      5   -0.05959500   1.0201300   7.9668723  20.0775170 #U00:ca
   134      7      5   -0.06126400   1.5856900   7.1691610  21.0789202 #U00:ca
   135      7      5   -0.04617100   2.8368500   7.5023467  21.6189161 #U00:ca
   136      7      5    0.07770600   3.5524300   8.6316108  21.1656289 #U00:ca
   137      7      2    0.29269500   4.8763700   8.9402841  21.8332925 #U00:c
   138      7      3   -0.26081100   5.4197900   8.1744704  22.6090026 #U00:o
   139      7      6   -0.32780000   5.4494700  10.1353000  21.5811834 #U00:oh
   140      7      7    0.03365900   5.5354600  12.2032514  19.1033614 #U00:hc
   141      7      7    0.03365900   6.1105300  11.4810592  17.5776212 #U00:hc
   142      7      7    0.03365900   4.4990600  12.2447560  17.6542722 #U00:hc
   143      7      8    0.06509300   1.2799400   9.7016122  18.8255405 #U00:ha
   144      7      8    0.06237000   0.0464052   7.7167345  19.6678140 #U00:ha
   145      7      8    0.06230100   1.0481200   6.3000902  21.4462492 #U00:ha
   146      7      8    0.06323000   3.2439100   6.8802100  22.4098936 #U00:ha
   147      7      9    0.22177600   6.2675200  10.1449729  22.1126103 #U00:ho
   148      8      1    0.02251800   4.7462400   5.8941476  18.1994170 #U00:c3
   149      8      2    0.26273500   5.3505200   4.5582150  18.6148586 #U00:c
   150      8      3   -0.26654000   4.9840400   3.4811774  18.1754118 #U00:o
   151      8      4   -0.27756100   6.3310800   4.7179563  19.5492184 #U00:os
   152      8      5    0.09861200   6.9755858   3.6500924  20.1293485 #U00:ca
   153      8      5   -0.03027200   8.2391148   3.3144241  19.6145909 #U00:ca
   154      8      5   -0.05959500   8.9236448   2.1876281  20.0875590 #U00:ca
   155      8      5   -0.06126400   8.3476148   1.3956757  21.0873918 #U00:ca
   156      8      5   -0.04617100   7.0988128   1.7413803  21.6250072 #U00:ca
   157      8      5    0.07770600   6.3951300   2.8767879  21.1692929 #U00:ca
   158      8      2    0.29269500   5.0720100   3.1973308  21.8325740 #U00:c
   159      8      3   -0.26081100   4.5123000   2.4308192  22.5964410 #U00:o
   160      8      6   -0.32780000   4.5189400   4.4040261  21.5920933 #U00:oh
   161      8      7    0.03365900   4.4888000   6.4838388  19.0874125 #U00:hc
   162      8      7    0.03365900   3.8384200   5.7310892  17.6076223 #U00:hc
   163      8      7    0.03365900   5.4687100   6.4579644  17.5989622 #U00:hc
   164      8      8    0.06509300   8.6836148   3.9240605  18.8340734 #U00:ha
   165      8      8    0.06237000   9.8959348   1.9281222  19.6800703 #U00:ha
   166      8      8    0.06230100   8.8752748   0.5208898  21.4552204 #U00:ha
   167      8      8    0.06323000   6.6834900   1.1235746  22.4154612 #U00:ha
   168      8      9    0.22177600   3.6982600   4.4194248  22.1190329 #U00:ho
   169      9      1    0.02251800   1.8886200  14.7593895   4.7141640 #U00:c3
   170      9      2    0.26273500   1.2925600  16.1009034   4.3047706 #U00:c
   171      9      3   -0.26654000   1.6619000  17.1731901   4.7528886 #U00:o
   172      9      4   -0.27756100   0.3135940  15.9513543   3.3665384 #U00:os
   173      9      5    0.09861200  -0.3335548  17.0234898   2.7966293 #U00:ca
   174      9      5   -0.03027200  -1.5977448  17.3495724   3.3158407 #U00:ca
   175      9      5   -0.05959500  -2.2897148  18.4747085   2.8499251 #U00:ca
   176      9      5   -0.06126400  -1.7204548  19.2756000   1.8535331 #U00:ca
   177      9      5   -0.04617100  -0.4705248  18.9402602   1.3123382 #U00:ca
   178      9      5    0.07770600   0.2407250  17.8060827   1.7601495 #U00:ca
   179      9      2    0.29269500   1.5638500  17.4972698   1.0912335 #U00:c
   180      9      3   -0.26081100   2.1093300  18.2650221   0.3188364 #U00:o
   181      9      6   -0.32780000   2.1339100  16.2999594   1.3386323 #U00:oh
   182      9      7    0.03365900   2.1682100  14.1845364   3.8229787 #U00:hc
   183      9      7    0.03365900   2.7815000  14.9124877   5.3312238 #U00:hc
   184      9      7    0.03365900   1.1518500  14.1851308   5.2872507 #U00:hc
   185      9      8    0.06509300  -2.0366748  16.7327963   4.0934239 #U00:ha
   186      9      8    0.06237000  -3.2625948  18.7265111   3.2603827 #U00:ha
   187      9      8    0.06230100  -2.2542048  20.1490255   1.4911223 #U00:ha
   188      9      8    0.06323000  -0.0608016  19.5654531   0.5251661 #U00:ha
   189      9      9    0.22177600   2.9509200  16.2898716   0.8055305 #U00:ho
   190     10      1    0.02251800   1.4160200   9.0024454   4.7144011 #U00:c3
   191     10      2    0.26273500   1.9993200  10.3477209   4.2990737 #U00:c
   192     10      3   -0.26654000   1.6165600  11.4192361   4.7378087 #U00:o
   193     10      4   -0.27756100   2.9845900  10.2020837   3.3670087 #U00:os
   194     10      5    0.09861200   3.6245600  11.2763538   2.7932537 #U00:ca
   195     10      5   -0.03027200   4.8878500  11.6117665   3.3087602 #U00:ca
   196     10      5   -0.05959500   5.5724200  12.7398307   2.8384773 #U00:ca
   197     10      5   -0.06126400   4.9967300  13.5332514   1.8395608 #U00:ca
   198     10      5   -0.04617100   3.7478500  13.1883321   1.3020317 #U00:ca
   199     10      5    0.07770600   3.0436100  12.0520314   1.7554489 #U00:ca
   200     10      2    0.29269500   1.7203600  11.7330278   1.0917548 #U00:c
   201     10      3   -0.26081100   1.1667100  12.4967100   0.3207014 #U00:o
   202     10      6   -0.32780000   1.1588800  10.5319103   1.3406587 #U00:oh
   203     10      7    0.03365900   1.1355100   8.4235094   3.8259437 #U00:hc
   204     10      7    0.03365900   0.5259530   9.1504406   5.3366216 #U00:hc
   205     10      7    0.03365900   2.1614900   8.4358572   5.2838224 #U00:hc
   206     10      8    0.06509300   5.3328700  10.9999482   4.0869055 #U00:ha
   207     10      8    0.06237000   6.5444300  12.9988188   3.2465385 #U00:ha
   208     10      8    0.06230100   5.5241700  14.4085343   1.4726144 #U00:ha
   209     10      8    0.06323000   3.3331000  13.8083615   0.5135089 #U00:ha
   210     10      9    0.22177600   0.3389950  10.5173168   0.8125666 #U00:ho
   211     11      1    0.02251800   5.2302700  24.2735088   6.6962086 #U00:c3
   212     11      2    0.26273500   4.6094800  22.9407667   7.0965379 #U00:c
   213     11      3   -0.26654000   4.9575800  21.8644895   6.6405112 #U00:o
   214     11      4   -0.27756100   3.6360100  23.1028049   8.0377218 #U00:os
   215     11      5    0.09861200   2.9817500  22.0378337   8.6119384 #U00:ca
   216     11      5   -0.03027200   1.7167100  21.7140751   8.0933145 #U00:ca
   217     11      5   -0.05959500   1.0201300  20.5939705   8.5647325 #U00:ca
   218     11      5   -0.06126400   1.5856900  19.7962592   9.5661356 #U00:ca
   219     11      5   -0.04617100   2.8368500  20.1294449  10.1061315 #U00:ca
   220     11      5    0.07770600   3.5524300  21.2587090   9.6528443 #U00:ca
   221     11      2    0.29269500   4.8763700  21.5673823  10.3205080 #U00:c
   222     11      3   -0.26081100   5.4197900  20.8015686  11.0962181 #U00:o
   223     11      6   -0.32780000   5.4494700  22.7623982  10.0683988 #U00:oh
   224     11      7    0.03365900   5.5354600  24.8303496   7.5905768 #U00:hc
   225     11      7    0.03365900   6.1105300  24.1081574   6.0648366 #U00:hc
   226     11      7    0.03365900   4.4990600  24.8718542   6.1414876 #U00:hc
   227     11      8    0.06509300   1.2799400  22.3287104   7.3127559 #U00:ha
   228     11      8    0.06237000   0.0464052  20.3438327   8.1550295 #U00:ha
   229     11      8    0.06230100   1.0481200  18.9271884   9.9334646 #U00:ha
   230     11      8    0.06323000   3.2439100  19.5073082  10.8971090 #U00:ha
   231     11      9    0.22177600   6.2675200  22.7720711  10.5998257 #U00:ho
   232     12      1    0.02251800   4.7462400  18.5212458   6.6866324 #U00:c3
   233     12      2    0.26273500   5.3505200  17.1853132   7.1020740 #U00:c
   234     12      3   -0.26654000   4.9840400  16.1082756   6.6626272 #U00:o
   235     12      4   -0.27756100   6.3310800  17.3450545   8.0364338 #U00:os
   236     12      5    0.09861200   6.9755858  16.2771906   8.6165640 #U00:ca
   237     12      5   -0.03027200   8.2391148  15.9415223   8.1018063 #U00:ca
   238     12      5   -0.05959500   8.9236448  14.8147263   8.5747744 #U00:ca
   239     12      5   -0.06126400   8.3476148  14.0227739   9.5746072 #U00:ca
   240     12      5   -0.04617100   7.0988128  14.3684785  10.1122227 #U00:ca
   241     12      5    0.07770600   6.3951300  15.5038861   9.6565083 #U00:ca
   242     12      2    0.29269500   5.0720100  15.8244290  10.3197894 #U00:c
   243     12      3   -0.26081100   4.5123000  15.0579174  11.0836565 #U00:o
   244     12      6   -0.32780000   4.5189400  17.0311243  10.0793087 #U00:oh
   245     12      7    0.03365900   4.4888000  19.1109370   7.5746279 #U00:hc
   246     12      7    0.03365900   3.8384200  18.3581874   6.0948378 #U00:hc
   247     12      7    0.03365900   5.4687100  19.0850626   6.0861776 #U00:hc
   248     12      8    0.06509300   8.6836148  16.5511587   7.3212888 #U00:ha
   249     12      8    0.06237000   9.8959348  14.5552204   8.1672858 #U00:ha
   250     12      8    0.06230100   8.8752748  13.1479880   9.9424358 #U00:ha
   251     12      8    0.06323000   6.6834900  13.7506728  10.9026766 #U00:ha
   252     12      9    0.22177600   3.6982600  17.0465230  10.6062483 #U00:ho
   253     13      1    0.02251800   1.8886200  13.6406750  16.2269486 #U00:c3
   254     13      2    0.26273500   1.2925600  14.9821889  15.8175552 #U00:c
   255     13      3   -0.26654000   1.6619000  16.0544756  16.2656732 #U00:o
   256     13      4   -0.27756100   0.3135940  14.8326398  14.8793230 #U00:os
   257     13      5    0.09861200  -0.3335548  15.9047753  14.3094139 #U00:ca
   258     13      5   -0.03027200  -1.5977448  16.2308579  14.8286253 #U00:ca
   259     13      5   -0.05959500  -2.2897148  17.3559940  14.3627097 #U00:ca
   260     13      5   -0.06126400  -1.7204548  18.1568856  13.3663176 #U00:ca
   261     13      5   -0.04617100  -0.4705248  17.8215457  12.8251228 #U00:ca
   262     13      5    0.07770600   0.2407250  16.6873682  13.2729341 #U00:ca
   263     13      2    0.29269500   1.5638500  16.3785553  12.6040181 #U00:c
   264     13      3   -0.26081100   2.1093300  17.1463077  11.8316210 #U00:o
   265     13      6   -0.32780000   2.1339100  15.1812450  12.8514169 #U00:oh
   266     13      7    0.03365900   2.1682100  13.0658220  15.3357633 #U00:hc
   267     13      7    0.03365900   2.7815000  13.7937732  16.8440084 #U00:hc
   268     13      7    0.03365900   1.1518500  13.0664163  16.8000352 #U00:hc
   269     13      8    0.06509300  -2.0366748  15.6140818  15.6062085 #U00:ha
   270     13      8    0.06237000  -3.2625948  17.6077967  14.7731673 #U00:ha
   271     13      8    0.06230100  -2.2542048  19.0303111  13.0039069 #U00:ha
   272     13      8    0.06323000  -0.0608016  18.4467387  12.0379507 #U00:ha
   273     13      9    0.22177600   2.9509200  15.1711571  12.3183151 #U00:ho
   274     14      1    0.02251800   1.4160200   7.8837310  16.2271857 #U00:c3
   275     14      2    0.26273500   1.9993200   9.2290064  15.8118582 #U00:c
   276     14      3   -0.26654000   1.6165600  10.3005217  16.2505933 #U00:o
   277     14      4   -0.27756100   2.9845900   9.0833692  14.8797933 #U00:os
   278     14      5    0.09861200   3.6245600  10.1576393  14.3060383 #U00:ca
   279     14      5   -0.03027200   4.8878500  10.4930520  14.8215447 #U00:ca
   280     14      5   -0.05959500   5.5724200  11.6211162  14.3512619 #U00:ca
   281     14      5   -0.06126400   4.9967300  12.4145369  13.3523454 #U00:ca
   282     14      5   -0.04617100   3.7478500  12.0696176  12.8148163 #U00:ca
   283     14      5    0.07770600   3.0436100  10.9333170  13.2682335 #U00:ca
   284     14      2    0.29269500   1.7203600  10.6143133  12.6045394 #U00:c
   285     14      3   -0.26081100   1.1667100  11.3779956  11.8334859 #U00:o
   286     14      6   -0.32780000   1.1588800   9.4131958  12.8534433 #U00:oh
   287     14      7    0.03365900   1.1355100   7.3047950  15.3387283 #U00:hc
   288     14      7    0.03365900   0.5259530   8.0317261  16.8494061 #U00:hc
   289     14      7    0.03365900   2.1614900   7.3171427  16.7966070 #U00:hc
   290     14      8    0.06509300   5.3328700   9.8812338  15.5996901 #U00:ha
   291     14      8    0.06237000   6.5444300  11.8801043  14.7593231 #U00:ha
   292     14      8    0.06230100   5.5241700  13.2898198  12.9853990 #U00:ha
   293     14      8    0.06323000   3.3331000  12.6896470  12.0262934 #U00:ha
   294     14      9    0.22177600   0.3389950   9.3986023  12.3253512 #U00:ho
   295     15      1    0.02251800   5.2302700  23.1547944  18.2089932 #U00:c3
   296     15      2    0.26273500   4.6094800  21.8220523  18.6093225 #U00:c
   297     15      3   -0.26654000   4.9575800  20.7457751  18.1532958 #U00:o
   298     15      4   -0.27756100   3.6360100  21.9840904  19.5505064 #U00:os
   299     15      5    0.09861200   2.9817500  20.9191192  20.1247230 #U00:ca
   300     15      5   -0.03027200   1.7167100  20.5953607  19.6060990 #U00:ca
   301     15      5   -0.05959500   1.0201300  19.4752560  20.0775170 #U00:ca
   302     15      5   -0.06126400   1.5856900  18.6775447  21.0789202 #U00:ca
   303     15      5   -0.04617100   2.8368500  19.0107305  21.6189161 #U00:ca
   304     15      5    0.07770600   3.5524300  20.1399945  21.1656289 #U00:ca
   305     15      2    0.29269500   4.8763700  20.4486678  21.8332925 #U00:c
   306     15      3   -0.26081100   5.4197900  19.6828542  22.6090026 #U00:o
   307     15      6   -0.32780000   5.4494700  21.6436837  21.5811834 #U00:oh
   308     15      7    0.03365900   5.5354600  23.7116352  19.1033614 #U00:hc
   309     15      7    0.03365900   6.1105300  22.9894430  17.5776212 #U00:hc
   310     15      7    0.03365900   4.4990600  23.7531398  17.6542722 #U00:hc
   311     15      8    0.06509300   1.2799400  21.2099959  18.8255405 #U00:ha
   312     15      8    0.06237000   0.0464052  19.2251182  19.6678140 #U00:ha
   313     15      8    0.06230100   1.0481200  17.8084739  21.4462492 #U00:ha
   314     15      8    0.06323000   3.2439100  18.3885937  22.4098936 #U00:ha
   315     15      9    0.22177600   6.2675200  21.6533566  22.1126103 #U00:ho
   316     16      1    0.02251800   4.7462400  17.4025314  18.1994170 #U00:c3
   317     16      2    0.26273500   5.3505200  16.0665987  18.6148586 #U00:c
   318     16      3   -0.26654000   4.9840400  14.9895611  18.1754118 #U00:o
   319     16      4   -0.27756100   6.3310800  16.2263401  19.5492184 #U00:os
   320     16      5    0.09861200   6.9755858  15.1584761  20.1293485 #U00:ca
   321     16      5   -0.03027200   8.2391148  14.8228078  19.6145909 #U00:ca
   322     16      5   -0.05959500   8.9236448  13.6960118  20.0875590 #U00:ca
   323     16      5   -0.06126400   8.3476148  12.9040594  21.0873918 #U00:ca
   324     16      5   -0.04617100   7.0988128  13.2497641  21.6250072 #U00:ca
   325     16      5    0.07770600   6.3951300  14.3851717  21.1692929 #U00:ca
   326     16      2    0.29269500   5.0720100  14.7057145  21.8325740 #U00:c
   327     16      3   -0.26081100   4.5123000  13.9392030  22.5964410 #U00:o
   328     16      6   -0.32780000   4.5189400  15.9124098  21.5920933 #U00:oh
   329     16      7    0.03365900   4.4888000  17.9922225  19.0874125 #U00:hc
   330     16      7    0.03365900   3.8384200  17.2394729  17.6076223 #U00:hc
   331     16      7    0.03365900   5.4687100  17.9663481  17.5989622 #U00:hc
   332     16      8    0.06509300   8.6836148  15.4324442  18.8340734 #U00:ha
   333     16      8    0.06237000   9.8959348  13.4365059  19.6800703 #U00:ha
   334     16      8    0.06230100   8.8752748  12.0292735  21.4552204 #U00:ha
   335     16      8    0.06323000   6.6834900  12.6319583  22.4154612 #U00:ha
   336     16      9    0.22177600   3.6982600  15.9278085  22.1190329 #U00:ho
   337     17      1    0.02251800   8.5543548   3.2510058   4.7141640 #U00:c3
   338     17      2    0.26273500   7.9582948   4.5925196   4.3047706 #U00:c
   339     17      3   -0.26654000   8.3276348   5.6648063   4.7528886 #U00:o
   340     17      4   -0.27756100   6.9793288   4.4429706   3.3665384 #U00:os
   341     17      5    0.09861200   6.3321800   5.5151060   2.7966293 #U00:ca
   342     17      5   -0.03027200   5.0679900   5.8411887   3.3158407 #U00:ca
   343     17      5   -0.05959500   4.3760200   6.9663247   2.8499251 #U00:ca
   344     17      5   -0.06126400   4.9452800   7.7672163   1.8535331 #U00:ca
   345     17      5   -0.04617100   6.1952100   7.4318764   1.3123382 #U00:ca
   346     17      5    0.07770600   6.9064598   6.2976989   1.7601495 #U00:ca
   347     17      2    0.29269500   8.2295848   5.9888861   1.0912335 #U00:c
   348     17      3   -0.26081100   8.7750648   6.7566384   0.3188364 #U00:o
   349     17      6   -0.32780000   8.7996448   4.7915757   1.3386323 #U00:oh
   350     17      7    0.03365900   8.8339448   2.6761527   3.8229787 #U00:hc
   351     17      7    0.03365900   9.4472348   3.4041040   5.3312238 #U00:hc