#smiles: CC(=O)OC1=CC=CC=C1C(=O)O

84 atoms
84 bonds
128 angles
196 dihedrals
0 impropers

9 atom types
10 bond types
14 angle types
10 dihedral types

   0.0000   11.4460 xlo xhi
   0.0000    6.5960 ylo yhi
   0.0000   11.3346 zlo zhi
   0.0000   -1.1014    0.0000 xy xz yz

Masses

1  12.0107800 #U00c3
2  12.0107800 #U00c
3  15.9994300 #U00o
4  15.9994300 #U00os
5  12.0107800 #U00ca
6  15.9994300 #U00oh
7   1.0079470 #U00hc
8   1.0079470 #U00ha
9   1.0079470 #U00ho

Bond Coeffs

1 harmonic 313.0000000   1.5240000 #U00(c3-c)
2 harmonic 637.7000000   1.2180000 #U00(c-o)
3 harmonic 390.8000000   1.3580000 #U00(c-os)
4 harmonic 376.6000000   1.3700000 #U00(os-ca)
5 harmonic 461.1000000   1.3980000 #U00(ca-ca)
6 harmonic 345.9000000   1.4910000 #U00(ca-c)
7 harmonic 400.1000000   1.3510000 #U00(c-oh)
8 harmonic 330.6000000   1.0970000 #U00(c3-hc)
9 harmonic 345.8000000   1.0860000 #U00(ca-ha)
10 harmonic 371.4000000   0.9730000 #U00(oh-ho)

Angle Coeffs

1 harmonic  67.4000000 123.2000528 #U00(c3-c-o)
2 harmonic  68.9000000 110.7200477 #U00(c3-c-os)
3 harmonic  46.9000000 108.7700466 #U00(c-c3-hc)
4 harmonic  63.4000000 121.1500522 #U00(c-os-ca)
5 harmonic  75.3000000 123.2500525 #U00(o-c-os)
6 harmonic  69.6000000 119.2000511 #U00(os-ca-ca)
7 harmonic  66.6000000 120.0200517 #U00(ca-ca-ca)
8 harmonic  48.2000000 119.8800511 #U00(ca-ca-ha)
9 harmonic  64.3000000 120.3300516 #U00(ca-ca-c)
10 harmonic  68.7000000 122.6000525 #U00(ca-c-o)
11 harmonic  69.2000000 113.4500489 #U00(ca-c-oh)
12 harmonic  49.9000000 106.5500460 #U00(c-oh-ho)
13 harmonic  75.9000000 122.1000523 #U00(o-c-oh)
14 harmonic  39.4000000 107.5800459 #U00(hc-c3-hc)

Dihedral Coeffs

1 charmm 2.700000 2 180 0.0 #U00(c3-c-os-ca,o-c-os-ca)
2 charmm 0.900000 2 180 0.0 #U00(c-os-ca-ca)
3 charmm 0.800000 1 0 0.0 #U00(o-c-c3-hc)
4 charmm 0.080000 3 180 0.0 #U00(o-c-c3-hc)
5 charmm 3.625000 2 180 0.0 #U00(os-ca-ca-ca,os-ca-ca-ha,os-ca-ca-c,ca-ca-ca-ca,ca-ca-ca-ha,ca-ca-ca-c,c-ca-ca-ha,ha-ca-ca-ha)
6 charmm 1.000000 2 180 0.0 #U00(ca-ca-c-o,ca-ca-c-oh)
7 charmm 2.300000 2 180 0.0 #U00(ca-c-oh-ho,o-c-oh-ho)
8 charmm 1.900000 1 0 0.0 #U00(o-c-oh-ho)
9 charmm 10.500000 2 180 0.0 #U00(o-c3-c-os,ca-oh-c-o)
10 charmm 1.100000 2 180 0.0 #U00(ca-ca-ca-os,ha-ca-ca-ca,c-ca-ca-ca)

Atoms

     1      1      1    0.02251800   4.7354824   1.0672328  -1.9699561 #U00:c3
     2      1      2    0.26273500   4.2507211   1.7222156  -0.7152142 #U00:c
     3      1      3   -0.26654000   4.5761052   1.4504604   0.3887773 #U00:o
     4      1      4   -0.27756100   3.3629061   2.7175520  -1.0019800 #U00:os
     5      1      5    0.09861200   2.8090171   3.3758328   0.1042785 #U00:ca
     6      1      5   -0.03027200   3.3796398   4.5822412   0.4749204 #U00:ca
     7      1      5   -0.05959500   2.8367605   5.3058224   1.5267727 #U00:ca
     8      1      5   -0.06126400   1.7300827   4.8256336   2.1966484 #U00:ca
     9      1      5   -0.04617100   1.1593066   3.6310980   1.8158053 #U00:ca
    10      1      5    0.07770600   1.6781494   2.8791540   0.7639531 #U00:ca
    11      1      2    0.29269500   0.9868793   1.5942532   0.4216477 #U00:c
    12      1      3   -0.26081100   0.0149340   1.2374096   1.0949238 #U00:o
    13      1      6   -0.32780000   1.4329041   0.9148652  -0.5757984 #U00:oh
    14      1      7    0.03365900   3.8048628   0.7954776  -2.6761026 #U00:hc
    15      1      7    0.03365900   5.1189861   0.2440520  -1.9234842 #U00:hc
    16      1      7    0.03365900   5.1587544   1.5190588  -2.4505438 #U00:hc
    17      1      8    0.06509300   4.1338979   4.8671884   0.0158685 #U00:ha
    18      1      8    0.06237000   3.2567840   6.1982612   1.8452753 #U00:ha
    19      1      8    0.06230100   1.3651685   5.3150568   2.9129961 #U00:ha
    20      1      8    0.06323000   0.4159676   3.3448316   2.2567219 #U00:ha
    21      1      9    0.22177600   0.9052017  -0.0131920  -0.9169704 #U00:ho
    22      2      1    0.02251800  -4.7354824  -1.0672328   1.9699561 #U00:c3
    23      2      2    0.26273500  -4.2507211  -1.7222156   0.7152142 #U00:c
    24      2      3   -0.26654000  -4.5761052  -1.4504604  -0.3887773 #U00:o
    25      2      4   -0.27756100  -3.3629061  -2.7175520   1.0019800 #U00:os
    26      2      5    0.09861200  -2.8090171  -3.3758328  -0.1042785 #U00:ca
    27      2      5   -0.03027200  -3.3796398  -4.5822412  -0.4749204 #U00:ca
    28      2      5   -0.05959500  -2.8367605  -5.3058224  -1.5267727 #U00:ca
    29      2      5   -0.06126400  -1.7300827  -4.8256336  -2.1966484 #U00:ca
    30      2      5   -0.04617100  -1.1593066  -3.6310980  -1.8158053 #U00:ca
    31      2      5    0.07770600  -1.6781494  -2.8791540  -0.7639531 #U00:ca
    32      2      2    0.29269500  -0.9868793  -1.5942532  -0.4216477 #U00:c
    33      2      3   -0.26081100  -0.0149340  -1.2374096  -1.0949238 #U00:o
    34      2      6   -0.32780000  -1.4329041  -0.9148652   0.5757984 #U00:oh
    35      2      7    0.03365900  -3.8048628  -0.7954776   2.6761026 #U00:hc
    36      2      7    0.03365900  -5.1189861  -0.2440520   1.9234842 #U00:hc
    37      2      7    0.03365900  -5.1587544  -1.5190588   2.4505438 #U00:hc
    38      2      8    0.06509300  -4.1338979  -4.8671884  -0.0158685 #U00:ha
    39      2      8    0.06237000  -3.2567840  -6.1982612  -1.8452753 #U00:ha
    40      2      8    0.06230100  -1.3651685  -5.3150568  -2.9129961 #U00:ha
    41      2      8    0.06323000  -0.4159676  -3.3448316  -2.2567219 #U00:ha
    42      2      9    0.22177600  -0.9052017   0.0131920   0.9169704 #U00:ho
    43      3      1    0.02251800   6.1598260   4.3652328   7.6372636 #U00:c3
    44      3      2    0.26273500   6.6445873   5.0202156   6.3825218 #U00:c
    45      3      3   -0.26654000   6.3192033   4.7484604   5.2785302 #U00:o
    46      3      4   -0.27756100   7.5324023   6.0155520   6.6692875 #U00:os
    47      3      5    0.09861200   8.0862913   6.6738328   5.5630291 #U00:ca
    48      3      5   -0.03027200   7.5156686   7.8802412   5.1923872 #U00:ca
    49      3      5   -0.05959500   8.0585479   8.6038224   4.1405349 #U00:ca
    50      3      5   -0.06126400   9.1652257   8.1236336   3.4706591 #U00:ca
    51      3      5   -0.04617100   9.7360018   6.9290980   3.8515022 #U00:ca
    52      3      5    0.07770600   9.2171590   6.1771540   4.9033545 #U00:ca
    53      3      2    0.29269500   9.9084291   4.8922532   5.2456599 #U00:c
    54      3      3   -0.26081100  10.8803744   4.5354096   4.5723837 #U00:o
    55      3      6   -0.32780000   9.4624044   4.2128652   6.2431060 #U00:oh
    56      3      7    0.03365900   7.0904457   4.0934776   8.3434102 #U00:hc
    57      3      7    0.03365900   5.7763223   3.5420520   7.5907917 #U00:hc
    58      3      7    0.03365900   5.7365540   4.8170588   8.1178513 #U00:hc
    59      3      8    0.06509300   6.7614106   8.1651884   5.6514391 #U00:ha
    60      3      8    0.06237000   7.6385244   9.4962612   3.8220322 #U00:ha
    61      3      8    0.06230100   9.5301399   8.6130568   2.7543115 #U00:ha
    62      3      8    0.06323000  10.4793408   6.6428316   3.4105857 #U00:ha
    63      3      9    0.22177600   9.9901067   3.2848080   6.5842779 #U00:ho
    64      4      1    0.02251800  15.6307908   2.2307672   3.6973514 #U00:c3
    65      4      2    0.26273500  15.1460295   1.5757844   4.9520933 #U00:c
    66      4      3   -0.26654000  15.4714136   1.8475396   6.0560848 #U00:o
    67      4      4   -0.27756100  14.2582145   0.5804480   4.6653276 #U00:os
    68      4      5    0.09861200  13.7043255  -0.0778328   5.7715860 #U00:ca
    69      4      5   -0.03027200  14.2749483  -1.2842412   6.1422279 #U00:ca
    70      4      5   -0.05959500  13.7320689  -2.0078224   7.1940802 #U00:ca
    71      4      5   -0.06126400  12.6253912  -1.5276336   7.8639559 #U00:ca
    72      4      5   -0.04617100  12.0546150  -0.3330980   7.4831129 #U00:ca
    73      4      5    0.07770600  12.5734578   0.4188460   6.4312606 #U00:ca
    74      4      2    0.29269500  11.8821878   1.7037468   6.0889552 #U00:c
    75      4      3   -0.26081100  10.9102424   2.0605904   6.7622314 #U00:o
    76      4      6   -0.32780000  12.3282125   2.3831348   5.0915091 #U00:oh
    77      4      7    0.03365900  14.7001712   2.5025224   2.9912049 #U00:hc
    78      4      7    0.03365900  16.0142945   3.0539480   3.7438234 #U00:hc
    79      4      7    0.03365900  16.0540629   1.7789412   3.2167638 #U00:hc
    80      4      8    0.06509300  15.0292063  -1.5691884   5.6831760 #U00:ha
    81      4      8    0.06237000  14.1520924  -2.9002612   7.5125829 #U00:ha
    82      4      8    0.06230100  12.2604769  -2.0170568   8.5803036 #U00:ha
    83      4      8    0.06323000  11.3112760  -0.0468316   7.9240294 #U00:ha
    84      4      9    0.22177600  11.8005101   3.3111920   4.7503372 #U00:ho

Velocities

     1   0.0000000   0.0000000   0.0000000
     2   0.0000000   0.0000000   0.0000000
     3   0.0000000   0.0000000   0.0000000
     4   0.0000000   0.0000000   0.0000000
     5   0.0000000   0.0000000   0.0000000
     6   0.0000000   0.0000000   0.0000000
     7   0.0000000   0.0000000   0.0000000
     8   0.0000000   0.0000000   0.0000000
     9   0.0000000   0.0000000   0.0000000
    10   0.0000000   0.0000000   0.0000000
    11   0.0000000   0.0000000   0.0000000
    12   0.0000000   0.0000000   0.0000000
    13   0.0000000   0.0000000   0.0000000
    14   0.0000000   0.0000000   0.0000000
    15   0.0000000   0.0000000   0.0000000
    16   0.0000000   0.0000000   0.0000000
    17   0.0000000   0.0000000   0.0000000
    18   0.0000000   0.0000000   0.0000000
    19   0.0000000   0.0000000   0.0000000
    20   0.0000000   0.0000000   0.0000000
    21   0.0000000   0.0000000   0.0000000
    22   0.0000000   0.0000000   0.0000000
    23   0.0000000   0.0000000   0.0000000
    24   0.0000000   0.0000000   0.0000000
    25   0.0000000   0.0000000   0.0000000
    26   0.0000000   0.0000000   0.0000000
    27   0.0000000   0.0000000   0.0000000
    28   0.0000000   0.0000000   0.0000000
    29   0.0000000   0.0000000   0.0000000
    30   0.0000000   0.0000000   0.0000000
    31   0.0000000   0.0000000   0.0000000
    32   0.0000000   0.0000000   0.0000000
    33   0.0000000   0.0000000   0.0000000
    34   0.0000000   0.0000000   0.0000000
    35   0.0000000   0.0000000   0.0000000
    36   0.0000000   0.0000000   0.0000000
    37   0.0000000   0.0000000   0.0000000
    38   0.0000000   0.0000000   0.0000000
    39   0.0000000   0.0000000   0.0000000
    40   0.0000000   0.0000000   0.0000000
    41   0.0000000   0.0000000   0.0000000
    42   0.0000000   0.0000000   0.0000000
    43   0.0000000   0.0000000   0.0000000
    44   0.0000000   0.0000000   0.0000000
    45   0.0000000   0.0000000   0.0000000
    46   0.0000000   0.0000000   0.0000000
    47   0.0000000   0.0000000   0.0000000
    48   0.0000000   0.0000000   0.0000000
    49   0.0000000   0.0000000   0.0000000
    50   0.0000000   0.0000000   0.0000000
    51   0.0000000   0.0000000   0.0000000
    52   0.0000000   0.0000000   0.0000000
    53   0.0000000   0.0000000   0.0000000
    54   0.0000000   0.0000000   0.0000000
    55   0.0000000   0.0000000   0.0000000
    56   0.0000000   0.0000000   0.0000000
    57   0.0000000   0.0000000   0.0000000
    58   0.0000000   0.0000000   0.0000000
    59   0.0000000   0.0000000   0.0000000
    60   0.0000000   0.0000000   0.0000000
    61   0.0000000   0.0000000   0.0000000
    62   0.0000000   0.0000000   0.0000000
    63   0.0000000   0.0000000   0.0000000
    64   0.0000000   0.0000000   0.0000000
    65   0.0000000   0.0000000   0.0000000
    66   0.0000000   0.0000000   0.0000000
    67   0.0000000   0.0000000   0.0000000
    68   0.0000000   0.0000000   0.0000000
    69   0.0000000   0.0000000   0.0000000
    70   0.0000000   0.0000000   0.0000000
    71   0.0000000   0.0000000   0.0000000
    72   0.0000000   0.0000000   0.0000000
    73   0.0000000   0.0000000   0.0000000
    74   0.0000000   0.0000000   0.0000000
    75   0.0000000   0.0000000   0.0000000
    76   0.0000000   0.0000000   0.0000000
    77   0.0000000   0.0000000   0.0000000
    78   0.0000000   0.0000000   0.0000000
    79   0.0000000   0.0000000   0.0000000
    80   0.0000000   0.0000000   0.0000000
    81   0.0000000   0.0000000   0.0000000
    82   0.0000000   0.0000000   0.0000000
    83   0.0000000   0.0000000   0.0000000
    84   0.0000000   0.0000000   0.0000000

Bonds

     1      1      1      2 #U00:c3-c
     2      2      2      3 #U00:c-o
     3      3      2      4 #U00:c-os
     4      4      4      5 #U00:os-ca
     5      5      5      6 #U00:ca-ca
     6      5      5     10 #U00:ca-ca
     7      5      6      7 #U00:ca-ca
     8      5      7      8 #U00:ca-ca
     9      5      8      9 #U00:ca-ca
    10      5      9     10 #U00:ca-ca
    11      6     10     11 #U00:ca-c
    12      7     11     13 #U00:c-oh
    13      2     11     12 #U00:c-o
    14      8      1     16 #U00:c3-hc
    15      8      1     15 #U00:c3-hc
    16      8      1     14 #U00:c3-hc
    17      9      6     17 #U00:ca-ha
    18      9      7     18 #U00:ca-ha
    19      9      8     19 #U00:ca-ha
    20      9      9     20 #U00:ca-ha
    21     10     13     21 #U00:oh-ho
    22      1     22     23 #U00:c3-c
    23      2     23     24 #U00:c-o
    24      3     23     25 #U00:c-os
    25      4     25     26 #U00:os-ca
    26      5     26     27 #U00:ca-ca
    27      5     26     31 #U00:ca-ca
    28      5     27     28 #U00:ca-ca
    29      5     28     29 #U00:ca-ca
    30      5     29     30 #U00:ca-ca
    31      5     30     31 #U00:ca-ca
    32      6     31     32 #U00:ca-c
    33      7     32     34 #U00:c-oh
    34      2     32     33 #U00:c-o
    35      8     22     37 #U00:c3-hc
    36      8     22     36 #U00:c3-hc
    37      8     22     35 #U00:c3-hc
    38      9     27     38 #U00:ca-ha
    39      9     28     39 #U00:ca-ha
    40      9     29     40 #U00:ca-ha
    41      9     30     41 #U00:ca-ha
    42     10     34     42 #U00:oh-ho
    43      1     43     44 #U00:c3-c
    44      2     44     45 #U00:c-o
    45      3     44     46 #U00:c-os
    46      4     46     47 #U00:os-ca
    47      5     47     48 #U00:ca-ca
    48      5     47     52 #U00:ca-ca
    49      5     48     49 #U00:ca-ca
    50      5     49     50 #U00:ca-ca
    51      5     50     51 #U00:ca-ca
    52      5     51     52 #U00:ca-ca
    53      6     52     53 #U00:ca-c
    54      7     53     55 #U00:c-oh
    55      2     53     54 #U00:c-o
    56      8     43     58 #U00:c3-hc
    57      8     43     57 #U00:c3-hc
    58      8     43     56 #U00:c3-hc
    59      9     48     59 #U00:ca-ha
    60      9     49     60 #U00:ca-ha
    61      9     50     61 #U00:ca-ha
    62      9     51     62 #U00:ca-ha
    63     10     55     63 #U00:oh-ho
    64      1     64     65 #U00:c3-c
    65      2     65     66 #U00:c-o
    66      3     65     67 #U00:c-os
    67      4     67     68 #U00:os-ca
    68      5     68     69 #U00:ca-ca
    69      5     68     73 #U00:ca-ca
    70      5     69     70 #U00:ca-ca
    71      5     70     71 #U00:ca-ca
    72      5     71     72 #U00:ca-ca
    73      5     72     73 #U00:ca-ca
    74      6     73     74 #U00:ca-c
    75      7     74     76 #U00:c-oh
    76      2     74     75 #U00:c-o
    77      8     64     79 #U00:c3-hc
    78      8     64     78 #U00:c3-hc
    79      8     64     77 #U00:c3-hc
    80      9     69     80 #U00:ca-ha
    81      9     70     81 #U00:ca-ha
    82      9     71     82 #U00:ca-ha
    83      9     72     83 #U00:ca-ha
    84     10     76     84 #U00:oh-ho

Angles

     1      1      1      2      3 #U00:c3-c-o
     2      2      1      2      4 #U00:c3-c-os
     3      3      2      1     14 #U00:c-c3-hc
     4      3      2      1     15 #U00:c-c3-hc
     5      3      2      1     16 #U00:c-c3-hc
     6      4      2      4      5 #U00:c-os-ca
     7      5      3      2      4 #U00:o-c-os
     8      6      4      5      6 #U00:os-ca-ca
     9      6      4      5     10 #U00:os-ca-ca
    10      7      5      6      7 #U00:ca-ca-ca
    11      8      5      6     17 #U00:ca-ca-ha
    12      7      5     10      9 #U00:ca-ca-ca
    13      9      5     10     11 #U00:ca-ca-c
    14      7      6      5     10 #U00:ca-ca-ca
    15      7      6      7      8 #U00:ca-ca-ca
    16      8      6      7     18 #U00:ca-ca-ha
    17      8      7      6     17 #U00:ca-ca-ha
    18      7      7      8      9 #U00:ca-ca-ca
    19      8      7      8     19 #U00:ca-ca-ha
    20      8      8      7     18 #U00:ca-ca-ha
    21      7      8      9     10 #U00:ca-ca-ca
    22      8      8      9     20 #U00:ca-ca-ha
    23      8      9      8     19 #U00:ca-ca-ha
    24      9      9     10     11 #U00:ca-ca-c
    25      8     10      9     20 #U00:ca-ca-ha
    26     10     10     11     12 #U00:ca-c-o
    27     11     10     11     13 #U00:ca-c-oh
    28     12     11     13     21 #U00:c-oh-ho
    29     13     12     11     13 #U00:o-c-oh
    30     14     14      1     15 #U00:hc-c3-hc
    31     14     14      1     16 #U00:hc-c3-hc
    32     14     15      1     16 #U00:hc-c3-hc
    33      1     22     23     24 #U00:c3-c-o
    34      2     22     23     25 #U00:c3-c-os
    35      3     23     22     35 #U00:c-c3-hc
    36      3     23     22     36 #U00:c-c3-hc
    37      3     23     22     37 #U00:c-c3-hc
    38      4     23     25     26 #U00:c-os-ca
    39      5     24     23     25 #U00:o-c-os
    40      6     25     26     27 #U00:os-ca-ca
    41      6     25     26     31 #U00:os-ca-ca
    42      7     26     27     28 #U00:ca-ca-ca
    43      8     26     27     38 #U00:ca-ca-ha
    44      7     26     31     30 #U00:ca-ca-ca
    45      9     26     31     32 #U00:ca-ca-c
    46      7     27     26     31 #U00:ca-ca-ca
    47      7     27     28     29 #U00:ca-ca-ca
    48      8     27     28     39 #U00:ca-ca-ha
    49      8     28     27     38 #U00:ca-ca-ha
    50      7     28     29     30 #U00:ca-ca-ca
    51      8     28     29     40 #U00:ca-ca-ha
    52      8     29     28     39 #U00:ca-ca-ha
    53      7     29     30     31 #U00:ca-ca-ca
    54      8     29     30     41 #U00:ca-ca-ha
    55      8     30     29     40 #U00:ca-ca-ha
    56      9     30     31     32 #U00:ca-ca-c
    57      8     31     30     41 #U00:ca-ca-ha
    58     10     31     32     33 #U00:ca-c-o
    59     11     31     32     34 #U00:ca-c-oh
    60     12     32     34     42 #U00:c-oh-ho
    61     13     33     32     34 #U00:o-c-oh
    62     14     35     22     36 #U00:hc-c3-hc
    63     14     35     22     37 #U00:hc-c3-hc
    64     14     36     22     37 #U00:hc-c3-hc
    65      1     43     44     45 #U00:c3-c-o
    66      2     43     44     46 #U00:c3-c-os
    67      3     44     43     56 #U00:c-c3-hc
    68      3     44     43     57 #U00:c-c3-hc
    69      3     44     43     58 #U00:c-c3-hc
    70      4     44     46     47 #U00:c-os-ca
    71      5     45     44     46 #U00:o-c-os
    72      6     46     47     48 #U00:os-ca-ca
    73      6     46     47     52 #U00:os-ca-ca
    74      7     47     48     49 #U00:ca-ca-ca
    75      8     47     48     59 #U00:ca-ca-ha
    76      7     47     52     51 #U00:ca-ca-ca
    77      9     47     52     53 #U00:ca-ca-c
    78      7     48     47     52 #U00:ca-ca-ca
    79      7     48     49     50 #U00:ca-ca-ca
    80      8     48     49     60 #U00:ca-ca-ha
    81      8     49     48     59 #U00:ca-ca-ha
    82      7     49     50     51 #U00:ca-ca-ca
    83      8     49     50     61 #U00:ca-ca-ha
    84      8     50     49     60 #U00:ca-ca-ha
    85      7     50     51     52 #U00:ca-ca-ca
    86      8     50     51     62 #U00:ca-ca-ha
    87      8     51     50     61 #U00:ca-ca-ha
    88      9     51     52     53 #U00:ca-ca-c
    89      8     52     51     62 #U00:ca-ca-ha
    90     10     52     53     54 #U00:ca-c-o
    91     11     52     53     55 #U00:ca-c-oh
    92     12     53     55     63 #U00:c-oh-ho
    93     13     54     53     55 #U00:o-c-oh
    94     14     56     43     57 #U00:hc-c3-hc
    95     14     56     43     58 #U00:hc-c3-hc
    96     14     57     43     58 #U00:hc-c3-hc
    97      1     64     65     66 #U00:c3-c-o
    98      2     64     65     67 #U00:c3-c-os
    99      3     65     64     77 #U00:c-c3-hc
   100      3     65     64     78 #U00:c-c3-hc
   101      3     65     64     79 #U00:c-c3-hc
   102      4     65     67     68 #U00:c-os-ca
   103      5     66     65     67 #U00:o-c-os
   104      6     67     68     69 #U00:os-ca-ca
   105      6     67     68     73 #U00:os-ca-ca
   106      7     68     69     70 #U00:ca-ca-ca
   107      8     68     69     80 #U00:ca-ca-ha
   108      7     68     73     72 #U00:ca-ca-ca
   109      9     68     73     74 #U00:ca-ca-c
   110      7     69     68     73 #U00:ca-ca-ca
   111      7     69     70     71 #U00:ca-ca-ca
   112      8     69     70     81 #U00:ca-ca-ha
   113      8     70     69     80 #U00:ca-ca-ha
   114      7     70     71     72 #U00:ca-ca-ca
   115      8     70     71     82 #U00:ca-ca-ha
   116      8     71     70     81 #U00:ca-ca-ha
   117      7     71     72     73 #U00:ca-ca-ca
   118      8     71     72     83 #U00:ca-ca-ha
   119      8     72     71     82 #U00:ca-ca-ha
   120      9     72     73     74 #U00:ca-ca-c
   121      8     73     72     83 #U00:ca-ca-ha
   122     10     73     74     75 #U00:ca-c-o
   123     11     73     74     76 #U00:ca-c-oh
   124     12     74     76     84 #U00:c-oh-ho
   125     13     75     74     76 #U00:o-c-oh
   126     14     77     64     78 #U00:hc-c3-hc
   127     14     77     64     79 #U00:hc-c3-hc
   128     14     78     64     79 #U00:hc-c3-hc

Dihedrals

     1      1      1      2      4      5 #U00:c3-c-os-ca
     2      2      2      4      5      6 #U00:c-os-ca-ca
     3      2      2      4      5     10 #U00:c-os-ca-ca
     4      3      3      2      1     14 #U00:o-c-c3-hc
     5      4      3      2      1     14 #U00:o-c-c3-hc
     6      3      3      2      1     15 #U00:o-c-c3-hc
     7      4      3      2      1     15 #U00:o-c-c3-hc
     8      3      3      2      1     16 #U00:o-c-c3-hc
     9      4      3      2      1     16 #U00:o-c-c3-hc
    10      1      3      2      4      5 #U00:o-c-os-ca
    11      5      4      5      6      7 #U00:os-ca-ca-ca
    12      5      4      5      6     17 #U00:os-ca-ca-ha
    13      5      4      5     10      9 #U00:os-ca-ca-ca
    14      5      4      5     10     11 #U00:os-ca-ca-c
    15      5      5      6      7      8 #U00:ca-ca-ca-ca
    16      5      5      6      7     18 #U00:ca-ca-ca-ha
    17      5      5     10      9      8 #U00:ca-ca-ca-ca
    18      5      5     10      9     20 #U00:ca-ca-ca-ha
    19      6      5     10     11     12 #U00:ca-ca-c-o
    20      6      5     10     11     13 #U00:ca-ca-c-oh
    21      5      6      5     10      9 #U00:ca-ca-ca-ca
    22      5      6      5     10     11 #U00:ca-ca-ca-c
    23      5      6      7      8      9 #U00:ca-ca-ca-ca
    24      5      6      7      8     19 #U00:ca-ca-ca-ha
    25      5      7      6      5     10 #U00:ca-ca-ca-ca
    26      5      7      8      9     10 #U00:ca-ca-ca-ca
    27      5      7      8      9     20 #U00:ca-ca-ca-ha
    28      5      8      7      6     17 #U00:ca-ca-ca-ha
    29      5      8      9     10     11 #U00:ca-ca-ca-c
    30      5      9      8      7     18 #U00:ca-ca-ca-ha
    31      6      9     10     11     12 #U00:ca-ca-c-o
    32      6      9     10     11     13 #U00:ca-ca-c-oh
    33      5     10      5      6     17 #U00:ca-ca-ca-ha
    34      5     10      9      8     19 #U00:ca-ca-ca-ha
    35      7     10     11     13     21 #U00:ca-c-oh-ho
    36      5     11     10      9     20 #U00:c-ca-ca-ha
    37      8     12     11     13     21 #U00:o-c-oh-ho
    38      7     12     11     13     21 #U00:o-c-oh-ho
    39      5     17      6      7     18 #U00:ha-ca-ca-ha
    40      5     18      7      8     19 #U00:ha-ca-ca-ha
    41      5     19      8      9     20 #U00:ha-ca-ca-ha
    42      9      3      1      2      4 #U00:o-c3-c-os
    43     10      6     10      5      4 #U00:ca-ca-ca-os
    44     10     17      5      6      7 #U00:ha-ca-ca-ca
    45     10     18      6      7      8 #U00:ha-ca-ca-ca
    46     10     19      7      8      9 #U00:ha-ca-ca-ca
    47     10     20      8      9     10 #U00:ha-ca-ca-ca
    48     10     11      5     10      9 #U00:c-ca-ca-ca
    49      9     10     13     11     12 #U00:ca-oh-c-o
    50      1     22     23     25     26 #U00:c3-c-os-ca
    51      2     23     25     26     27 #U00:c-os-ca-ca
    52      2     23     25     26     31 #U00:c-os-ca-ca
    53      3     24     23     22     35 #U00:o-c-c3-hc
    54      4     24     23     22     35 #U00:o-c-c3-hc
    55      3     24     23     22     36 #U00:o-c-c3-hc
    56      4     24     23     22     36 #U00:o-c-c3-hc
    57      3     24     23     22     37 #U00:o-c-c3-hc
    58      4     24     23     22     37 #U00:o-c-c3-hc
    59      1     24     23     25     26 #U00:o-c-os-ca
    60      5     25     26     27     28 #U00:os-ca-ca-ca
    61      5     25     26     27     38 #U00:os-ca-ca-ha
    62      5     25     26     31     30 #U00:os-ca-ca-ca
    63      5     25     26     31     32 #U00:os-ca-ca-c
    64      5     26     27     28     29 #U00:ca-ca-ca-ca
    65      5     26     27     28     39 #U00:ca-ca-ca-ha
    66      5     26     31     30     29 #U00:ca-ca-ca-ca
    67      5     26     31     30     41 #U00:ca-ca-ca-ha
    68      6     26     31     32     33 #U00:ca-ca-c-o
    69      6     26     31     32     34 #U00:ca-ca-c-oh
    70      5     27     26     31     30 #U00:ca-ca-ca-ca
    71      5     27     26     31     32 #U00:ca-ca-ca-c
    72      5     27     28     29     30 #U00:ca-ca-ca-ca
    73      5     27     28     29     40 #U00:ca-ca-ca-ha
    74      5     28     27     26     31 #U00:ca-ca-ca-ca
    75      5     28     29     30     31 #U00:ca-ca-ca-ca
    76      5     28     29     30     41 #U00:ca-ca-ca-ha
    77      5     29     28     27     38 #U00:ca-ca-ca-ha
    78      5     29     30     31     32 #U00:ca-ca-ca-c
    79      5     30     29     28     39 #U00:ca-ca-ca-ha
    80      6     30     31     32     33 #U00:ca-ca-c-o
    81      6     30     31     32     34 #U00:ca-ca-c-oh
    82      5     31     26     27     38 #U00:ca-ca-ca-ha
    83      5     31     30     29     40 #U00:ca-ca-ca-ha
    84      7     31     32     34     42 #U00:ca-c-oh-ho
    85      5     32     31     30     41 #U00:c-ca-ca-ha
    86      8     33     32     34     42 #U00:o-c-oh-ho
    87      7     33     32     34     42 #U00:o-c-oh-ho
    88      5     38     27     28     39 #U00:ha-ca-ca-ha
    89      5     39     28     29     40 #U00:ha-ca-ca-ha
    90      5     40     29     30     41 #U00:ha-ca-ca-ha
    91      9     24     22     23     25 #U00:o-c3-c-os
    92     10     27     31     26     25 #U00:ca-ca-ca-os
    93     10     38     26     27     28 #U00:ha-ca-ca-ca
    94     10     39     27     28     29 #U00:ha-ca-ca-ca
    95     10     40     28     29     30 #U00:ha-ca-ca-ca
    96     10     41     29     30     31 #U00:ha-ca-ca-ca
    97     10     32     26     31     30 #U00:c-ca-ca-ca
    98      9     31     34     32     33 #U00:ca-oh-c-o
    99      1     43     44     46     47 #U00:c3-c-os-ca
   100      2     44     46     47     48 #U00:c-os-ca-ca
   101      2     44     46     47     52 #U00:c-os-ca-ca
   102      3     45     44     43     56 #U00:o-c-c3-hc
   103      4     45     44     43     56 #U00:o-c-c3-hc
   104      3     45     44     43     57 #U00:o-c-c3-hc
   105      4     45     44     43     57 #U00:o-c-c3-hc
   106      3     45     44     43     58 #U00:o-c-c3-hc
   107      4     45     44     43     58 #U00:o-c-c3-hc
   108      1     45     44     46     47 #U00:o-c-os-ca
   109      5     46     47     48     49 #U00:os-ca-ca-ca
   110      5     46     47     48     59 #U00:os-ca-ca-ha
   111      5     46     47     52     51 #U00:os-ca-ca-ca
   112      5     46     47     52     53 #U00:os-ca-ca-c
   113      5     47     48     49     50 #U00:ca-ca-ca-ca
   114      5     47     48     49     60 #U00:ca-ca-ca-ha
   115      5     47     52     51     50 #U00:ca-ca-ca-ca
   116      5     47     52     51     62 #U00:ca-ca-ca-ha
   117      6     47     52     53     54 #U00:ca-ca-c-o
   118      6     47     52     53     55 #U00:ca-ca-c-oh
   119      5     48     47     52     51 #U00:ca-ca-ca-ca
   120      5     48     47     52     53 #U00:ca-ca-ca-c
   121      5     48     49     50     51 #U00:ca-ca-ca-ca
   122      5     48     49     50     61 #U00:ca-ca-ca-ha
   123      5     49     48     47     52 #U00:ca-ca-ca-ca
   124      5     49     50     51     52 #U00:ca-ca-ca-ca
   125      5     49     50     51     62 #U00:ca-ca-ca-ha
   126      5     50     49     48     59 #U00:ca-ca-ca-ha
   127      5     50     51     52     53 #U00:ca-ca-ca-c
   128      5     51     50     49     60 #U00:ca-ca-ca-ha
   129      6     51     52     53     54 #U00:ca-ca-c-o
   130      6     51     52     53     55 #U00:ca-ca-c-oh
   131      5     52     47     48     59 #U00:ca-ca-ca-ha
   132      5     52     51     50     61 #U00:ca-ca-ca-ha
   133      7     52     53     55     63 #U00:ca-c-oh-ho
   134      5     53     52     51     62 #U00:c-ca-ca-ha
   135      8     54     53     55     63 #U00:o-c-oh-ho
   136      7     54     53     55     63 #U00:o-c-oh-ho
   137      5     59     48     49     60 #U00:ha-ca-ca-ha